+ 0.5 0 1 tcp 40 ------- 0 0.0 1.0 0 0
- 0.5 0 1 tcp 40 ------- 0 0.0 1.0 0 0
r 0.55032 0 1 tcp 40 ------- 0 0.0 1.0 0 0
+ 0.55032 1 0 ack 40 ------- 0 1.0 0.0 0 1
- 0.55032 1 0 ack 40 ------- 0 1.0 0.0 0 1
r 0.60064 1 0 ack 40 ------- 0 1.0 0.0 0 1
+ 0.60064 0 1 tcp 1040 ------- 0 0.0 1.0 1 2
- 0.60064 0 1 tcp 1040 ------- 0 0.0 1.0 1 2
+ 0.60064 0 1 tcp 1040 ------- 0 0.0 1.0 2 3
- 0.60896 0 1 tcp 1040 ------- 0 0.0 1.0 2 3
r 0.65896 0 1 tcp 1040 ------- 0 0.0 1.0 1 2
+ 0.65896 1 0 ack 40 ------- 0 1.0 0.0 1 4
- 0.65896 1 0 ack 40 ------- 0 1.0 0.0 1 4
r 0.66728 0 1 tcp 1040 ------- 0 0.0 1.0 2 3
+ 0.66728 1 0 ack 40 ------- 0 1.0 0.0 2 5
- 0.66728 1 0 ack 40 ------- 0 1.0 0.0 2 5
r 0.70928 1 0 ack 40 ------- 0 1.0 0.0 1 4
+ 0.70928 0 1 tcp 1040 ------- 0 0.0 1.0 3 6
- 0.70928 0 1 tcp 1040 ------- 0 0.0 1.0 3 6
+ 0.70928 0 1 tcp 1040 ------- 0 0.0 1.0 4 7
r 0.7176 1 0 ack 40 ------- 0 1.0 0.0 2 5
+ 0.7176 0 1 tcp 1040 ------- 0 0.0 1.0 5 8
+ 0.7176 0 1 tcp 1040 ------- 0 0.0 1.0 6 9
- 0.7176 0 1 tcp 1040 ------- 0 0.0 1.0 4 7
- 0.72592 0 1 tcp 1040 ------- 0 0.0 1.0 5 8
- 0.73424 0 1 tcp 1040 ------- 0 0.0 1.0 6 9
r 0.7676 0 1 tcp 1040 ------- 0 0.0 1.0 3 6
+ 0.7676 1 0 ack 40 ------- 0 1.0 0.0 3 10
- 0.7676 1 0 ack 40 ------- 0 1.0 0.0 3 10
r 0.77592 0 1 tcp 1040 ------- 0 0.0 1.0 4 7
+ 0.77592 1 0 ack 40 ------- 0 1.0 0.0 4 11
- 0.77592 1 0 ack 40 ------- 0 1.0 0.0 4 11
r 0.78424 0 1 tcp 1040 ------- 0 0.0 1.0 5 8
+ 0.78424 1 0 ack 40 ------- 0 1.0 0.0 5 12
- 0.78424 1 0 ack 40 ------- 0 1.0 0.0 5 12
r 0.79256 0 1 tcp 1040 ------- 0 0.0 1.0 6 9
+ 0.79256 1 0 ack 40 ------- 0 1.0 0.0 6 13
- 0.79256 1 0 ack 40 ------- 0 1.0 0.0 6 13
r 0.81792 1 0 ack 40 ------- 0 1.0 0.0 3 10
+ 0.81792 0 1 tcp 1040 ------- 0 0.0 1.0 7 14
- 0.81792 0 1 tcp 1040 ------- 0 0.0 1.0 7 14
+ 0.81792 0 1 tcp 1040 ------- 0 0.0 1.0 8 15
r 0.82624 1 0 ack 40 ------- 0 1.0 0.0 4 11
+ 0.82624 0 1 tcp 1040 ------- 0 0.0 1.0 9 16
+ 0.82624 0 1 tcp 1040 ------- 0 0.0 1.0 10 17
- 0.82624 0 1 tcp 1040 ------- 0 0.0 1.0 8 15
r 0.83456 1 0 ack 40 ------- 0 1.0 0.0 5 12
+ 0.83456 0 1 tcp 1040 ------- 0 0.0 1.0 11 18
+ 0.83456 0 1 tcp 1040 ------- 0 0.0 1.0 12 19
- 0.83456 0 1 tcp 1040 ------- 0 0.0 1.0 9 16
r 0.84288 1 0 ack 40 ------- 0 1.0 0.0 6 13
+ 0.84288 0 1 tcp 1040 ------- 0 0.0 1.0 13 20
+ 0.84288 0 1 tcp 1040 ------- 0 0.0 1.0 14 21
- 0.84288 0 1 tcp 1040 ------- 0 0.0 1.0 10 17
- 0.8512 0 1 tcp 1040 ------- 0 0.0 1.0 11 18
- 0.85952 0 1 tcp 1040 ------- 0 0.0 1.0 12 19
- 0.86784 0 1 tcp 1040 ------- 0 0.0 1.0 13 20
- 0.87616 0 1 tcp 1040 ------- 0 0.0 1.0 14 21
r 0.87624 0 1 tcp 1040 ------- 0 0.0 1.0 7 14
+ 0.87624 1 0 ack 40 ------- 0 1.0 0.0 7 22
- 0.87624 1 0 ack 40 ------- 0 1.0 0.0 7 22
r 0.88456 0 1 tcp 1040 ------- 0 0.0 1.0 8 15
+ 0.88456 1 0 ack 40 ------- 0 1.0 0.0 8 23
- 0.88456 1 0 ack 40 ------- 0 1.0 0.0 8 23
r 0.89288 0 1 tcp 1040 ------- 0 0.0 1.0 9 16
+ 0.89288 1 0 ack 40 ------- 0 1.0 0.0 9 24
- 0.89288 1 0 ack 40 ------- 0 1.0 0.0 9 24
r 0.9012 0 1 tcp 1040 ------- 0 0.0 1.0 10 17
+ 0.9012 1 0 ack 40 ------- 0 1.0 0.0 10 25
- 0.9012 1 0 ack 40 ------- 0 1.0 0.0 10 25
r 0.90952 0 1 tcp 1040 ------- 0 0.0 1.0 11 18
+ 0.90952 1 0 ack 40 ------- 0 1.0 0.0 11 26
- 0.90952 1 0 ack 40 ------- 0 1.0 0.0 11 26
r 0.91784 0 1 tcp 1040 ------- 0 0.0 1.0 12 19
+ 0.91784 1 0 ack 40 ------- 0 1.0 0.0 12 27
- 0.91784 1 0 ack 40 ------- 0 1.0 0.0 12 27
r 0.92616 0 1 tcp 1040 ------- 0 0.0 1.0 13 20
+ 0.92616 1 0 ack 40 ------- 0 1.0 0.0 13 28
- 0.92616 1 0 ack 40 ------- 0 1.0 0.0 13 28
r 0.92656 1 0 ack 40 ------- 0 1.0 0.0 7 22
+ 0.92656 0 1 tcp 1040 ------- 0 0.0 1.0 15 29
- 0.92656 0 1 tcp 1040 ------- 0 0.0 1.0 15 29
+ 0.92656 0 1 tcp 1040 ------- 0 0.0 1.0 16 30
r 0.93448 0 1 tcp 1040 ------- 0 0.0 1.0 14 21
+ 0.93448 1 0 ack 40 ------- 0 1.0 0.0 14 31
- 0.93448 1 0 ack 40 ------- 0 1.0 0.0 14 31
r 0.93488 1 0 ack 40 ------- 0 1.0 0.0 8 23
+ 0.93488 0 1 tcp 1040 ------- 0 0.0 1.0 17 32
+ 0.93488 0 1 tcp 1040 ------- 0 0.0 1.0 18 33
- 0.93488 0 1 tcp 1040 ------- 0 0.0 1.0 16 30
r 0.9432 1 0 ack 40 ------- 0 1.0 0.0 9 24
+ 0.9432 0 1 tcp 1040 ------- 0 0.0 1.0 19 34
+ 0.9432 0 1 tcp 1040 ------- 0 0.0 1.0 20 35
- 0.9432 0 1 tcp 1040 ------- 0 0.0 1.0 17 32
r 0.95152 1 0 ack 40 ------- 0 1.0 0.0 10 25
+ 0.95152 0 1 tcp 1040 ------- 0 0.0 1.0 21 36
+ 0.95152 0 1 tcp 1040 ------- 0 0.0 1.0 22 37
- 0.95152 0 1 tcp 1040 ------- 0 0.0 1.0 18 33
r 0.95984 1 0 ack 40 ------- 0 1.0 0.0 11 26
+ 0.95984 0 1 tcp 1040 ------- 0 0.0 1.0 23 38
+ 0.95984 0 1 tcp 1040 ------- 0 0.0 1.0 24 39
- 0.95984 0 1 tcp 1040 ------- 0 0.0 1.0 19 34
r 0.96816 1 0 ack 40 ------- 0 1.0 0.0 12 27
+ 0.96816 0 1 tcp 1040 ------- 0 0.0 1.0 25 40
+ 0.96816 0 1 tcp 1040 ------- 0 0.0 1.0 26 41
- 0.96816 0 1 tcp 1040 ------- 0 0.0 1.0 20 35
r 0.97648 1 0 ack 40 ------- 0 1.0 0.0 13 28
+ 0.97648 0 1 tcp 1040 ------- 0 0.0 1.0 27 42
+ 0.97648 0 1 tcp 1040 ------- 0 0.0 1.0 28 43
- 0.97648 0 1 tcp 1040 ------- 0 0.0 1.0 21 36
r 0.9848 1 0 ack 40 ------- 0 1.0 0.0 14 31
+ 0.9848 0 1 tcp 1040 ------- 0 0.0 1.0 29 44
+ 0.9848 0 1 tcp 1040 ------- 0 0.0 1.0 30 45
- 0.9848 0 1 tcp 1040 ------- 0 0.0 1.0 22 37
r 0.98488 0 1 tcp 1040 ------- 0 0.0 1.0 15 29
+ 0.98488 1 0 ack 40 ------- 0 1.0 0.0 15 46
- 0.98488 1 0 ack 40 ------- 0 1.0 0.0 15 46
- 0.99312 0 1 tcp 1040 ------- 0 0.0 1.0 23 38
r 0.9932 0 1 tcp 1040 ------- 0 0.0 1.0 16 30
+ 0.9932 1 0 ack 40 ------- 0 1.0 0.0 16 47
- 0.9932 1 0 ack 40 ------- 0 1.0 0.0 16 47
- 1.00144 0 1 tcp 1040 ------- 0 0.0 1.0 24 39
r 1.00152 0 1 tcp 1040 ------- 0 0.0 1.0 17 32
+ 1.00152 1 0 ack 40 ------- 0 1.0 0.0 17 48
- 1.00152 1 0 ack 40 ------- 0 1.0 0.0 17 48
- 1.00976 0 1 tcp 1040 ------- 0 0.0 1.0 25 40
r 1.00984 0 1 tcp 1040 ------- 0 0.0 1.0 18 33
+ 1.00984 1 0 ack 40 ------- 0 1.0 0.0 18 49
- 1.00984 1 0 ack 40 ------- 0 1.0 0.0 18 49
- 1.01808 0 1 tcp 1040 ------- 0 0.0 1.0 26 41
r 1.01816 0 1 tcp 1040 ------- 0 0.0 1.0 19 34
+ 1.01816 1 0 ack 40 ------- 0 1.0 0.0 19 50
- 1.01816 1 0 ack 40 ------- 0 1.0 0.0 19 50
- 1.0264 0 1 tcp 1040 ------- 0 0.0 1.0 27 42
r 1.02648 0 1 tcp 1040 ------- 0 0.0 1.0 20 35
+ 1.02648 1 0 ack 40 ------- 0 1.0 0.0 20 51
- 1.02648 1 0 ack 40 ------- 0 1.0 0.0 20 51
- 1.03472 0 1 tcp 1040 ------- 0 0.0 1.0 28 43
r 1.0348 0 1 tcp 1040 ------- 0 0.0 1.0 21 36
+ 1.0348 1 0 ack 40 ------- 0 1.0 0.0 21 52
- 1.0348 1 0 ack 40 ------- 0 1.0 0.0 21 52
r 1.0352 1 0 ack 40 ------- 0 1.0 0.0 15 46
+ 1.0352 0 1 tcp 1040 ------- 0 0.0 1.0 31 53
+ 1.0352 0 1 tcp 1040 ------- 0 0.0 1.0 32 54
- 1.04304 0 1 tcp 1040 ------- 0 0.0 1.0 29 44
r 1.04312 0 1 tcp 1040 ------- 0 0.0 1.0 22 37
+ 1.04312 1 0 ack 40 ------- 0 1.0 0.0 22 55
- 1.04312 1 0 ack 40 ------- 0 1.0 0.0 22 55
r 1.04352 1 0 ack 40 ------- 0 1.0 0.0 16 47
+ 1.04352 0 1 tcp 1040 ------- 0 0.0 1.0 33 56
+ 1.04352 0 1 tcp 1040 ------- 0 0.0 1.0 34 57
- 1.05136 0 1 tcp 1040 ------- 0 0.0 1.0 30 45
r 1.05144 0 1 tcp 1040 ------- 0 0.0 1.0 23 38
+ 1.05144 1 0 ack 40 ------- 0 1.0 0.0 23 58
- 1.05144 1 0 ack 40 ------- 0 1.0 0.0 23 58
r 1.05184 1 0 ack 40 ------- 0 1.0 0.0 17 48
+ 1.05184 0 1 tcp 1040 ------- 0 0.0 1.0 35 59
+ 1.05184 0 1 tcp 1040 ------- 0 0.0 1.0 36 60
- 1.05968 0 1 tcp 1040 ------- 0 0.0 1.0 31 53
r 1.05976 0 1 tcp 1040 ------- 0 0.0 1.0 24 39
+ 1.05976 1 0 ack 40 ------- 0 1.0 0.0 24 61
- 1.05976 1 0 ack 40 ------- 0 1.0 0.0 24 61
r 1.06016 1 0 ack 40 ------- 0 1.0 0.0 18 49
+ 1.06016 0 1 tcp 1040 ------- 0 0.0 1.0 37 62
+ 1.06016 0 1 tcp 1040 ------- 0 0.0 1.0 38 63
- 1.068 0 1 tcp 1040 ------- 0 0.0 1.0 32 54
r 1.06808 0 1 tcp 1040 ------- 0 0.0 1.0 25 40
+ 1.06808 1 0 ack 40 ------- 0 1.0 0.0 25 64
- 1.06808 1 0 ack 40 ------- 0 1.0 0.0 25 64
r 1.06848 1 0 ack 40 ------- 0 1.0 0.0 19 50
+ 1.06848 0 1 tcp 1040 ------- 0 0.0 1.0 39 65
- 1.07632 0 1 tcp 1040 ------- 0 0.0 1.0 33 56
r 1.0764 0 1 tcp 1040 ------- 0 0.0 1.0 26 41
+ 1.0764 1 0 ack 40 ------- 0 1.0 0.0 26 66
- 1.0764 1 0 ack 40 ------- 0 1.0 0.0 26 66
r 1.0768 1 0 ack 40 ------- 0 1.0 0.0 20 51
+ 1.0768 0 1 tcp 1040 ------- 0 0.0 1.0 40 67
- 1.08464 0 1 tcp 1040 ------- 0 0.0 1.0 34 57
r 1.08472 0 1 tcp 1040 ------- 0 0.0 1.0 27 42
+ 1.08472 1 0 ack 40 ------- 0 1.0 0.0 27 68
- 1.08472 1 0 ack 40 ------- 0 1.0 0.0 27 68
r 1.08512 1 0 ack 40 ------- 0 1.0 0.0 21 52
+ 1.08512 0 1 tcp 1040 ------- 0 0.0 1.0 41 69
- 1.09296 0 1 tcp 1040 ------- 0 0.0 1.0 35 59
r 1.09304 0 1 tcp 1040 ------- 0 0.0 1.0 28 43
+ 1.09304 1 0 ack 40 ------- 0 1.0 0.0 28 70
- 1.09304 1 0 ack 40 ------- 0 1.0 0.0 28 70
r 1.09344 1 0 ack 40 ------- 0 1.0 0.0 22 55
+ 1.09344 0 1 tcp 1040 ------- 0 0.0 1.0 42 71
- 1.10128 0 1 tcp 1040 ------- 0 0.0 1.0 36 60
r 1.10136 0 1 tcp 1040 ------- 0 0.0 1.0 29 44
+ 1.10136 1 0 ack 40 ------- 0 1.0 0.0 29 72
- 1.10136 1 0 ack 40 ------- 0 1.0 0.0 29 72
r 1.10176 1 0 ack 40 ------- 0 1.0 0.0 23 58
+ 1.10176 0 1 tcp 1040 ------- 0 0.0 1.0 43 73
- 1.1096 0 1 tcp 1040 ------- 0 0.0 1.0 37 62
r 1.10968 0 1 tcp 1040 ------- 0 0.0 1.0 30 45
+ 1.10968 1 0 ack 40 ------- 0 1.0 0.0 30 74
- 1.10968 1 0 ack 40 ------- 0 1.0 0.0 30 74
r 1.11008 1 0 ack 40 ------- 0 1.0 0.0 24 61
+ 1.11008 0 1 tcp 1040 ------- 0 0.0 1.0 44 75
- 1.11792 0 1 tcp 1040 ------- 0 0.0 1.0 38 63
r 1.118 0 1 tcp 1040 ------- 0 0.0 1.0 31 53
+ 1.118 1 0 ack 40 ------- 0 1.0 0.0 31 76
- 1.118 1 0 ack 40 ------- 0 1.0 0.0 31 76
r 1.1184 1 0 ack 40 ------- 0 1.0 0.0 25 64
+ 1.1184 0 1 tcp 1040 ------- 0 0.0 1.0 45 77
- 1.12624 0 1 tcp 1040 ------- 0 0.0 1.0 39 65
r 1.12632 0 1 tcp 1040 ------- 0 0.0 1.0 32 54
+ 1.12632 1 0 ack 40 ------- 0 1.0 0.0 32 78
- 1.12632 1 0 ack 40 ------- 0 1.0 0.0 32 78
r 1.12672 1 0 ack 40 ------- 0 1.0 0.0 26 66
+ 1.12672 0 1 tcp 1040 ------- 0 0.0 1.0 46 79
- 1.13456 0 1 tcp 1040 ------- 0 0.0 1.0 40 67
r 1.13464 0 1 tcp 1040 ------- 0 0.0 1.0 33 56
+ 1.13464 1 0 ack 40 ------- 0 1.0 0.0 33 80
- 1.13464 1 0 ack 40 ------- 0 1.0 0.0 33 80
r 1.13504 1 0 ack 40 ------- 0 1.0 0.0 27 68
+ 1.13504 0 1 tcp 1040 ------- 0 0.0 1.0 47 81
- 1.14288 0 1 tcp 1040 ------- 0 0.0 1.0 41 69
r 1.14296 0 1 tcp 1040 ------- 0 0.0 1.0 34 57
+ 1.14296 1 0 ack 40 ------- 0 1.0 0.0 34 82
- 1.14296 1 0 ack 40 ------- 0 1.0 0.0 34 82
r 1.14336 1 0 ack 40 ------- 0 1.0 0.0 28 70
+ 1.14336 0 1 tcp 1040 ------- 0 0.0 1.0 48 83
- 1.1512 0 1 tcp 1040 ------- 0 0.0 1.0 42 71
r 1.15128 0 1 tcp 1040 ------- 0 0.0 1.0 35 59
+ 1.15128 1 0 ack 40 ------- 0 1.0 0.0 35 84
- 1.15128 1 0 ack 40 ------- 0 1.0 0.0 35 84
r 1.15168 1 0 ack 40 ------- 0 1.0 0.0 29 72
+ 1.15168 0 1 tcp 1040 ------- 0 0.0 1.0 49 85
- 1.15952 0 1 tcp 1040 ------- 0 0.0 1.0 43 73
r 1.1596 0 1 tcp 1040 ------- 0 0.0 1.0 36 60
+ 1.1596 1 0 ack 40 ------- 0 1.0 0.0 36 86
- 1.1596 1 0 ack 40 ------- 0 1.0 0.0 36 86
r 1.16 1 0 ack 40 ------- 0 1.0 0.0 30 74
+ 1.16 0 1 tcp 1040 ------- 0 0.0 1.0 50 87
- 1.16784 0 1 tcp 1040 ------- 0 0.0 1.0 44 75
r 1.16792 0 1 tcp 1040 ------- 0 0.0 1.0 37 62
+ 1.16792 1 0 ack 40 ------- 0 1.0 0.0 37 88
- 1.16792 1 0 ack 40 ------- 0 1.0 0.0 37 88
r 1.16832 1 0 ack 40 ------- 0 1.0 0.0 31 76
+ 1.16832 0 1 tcp 1040 ------- 0 0.0 1.0 51 89
- 1.17616 0 1 tcp 1040 ------- 0 0.0 1.0 45 77
r 1.17624 0 1 tcp 1040 ------- 0 0.0 1.0 38 63
+ 1.17624 1 0 ack 40 ------- 0 1.0 0.0 38 90
- 1.17624 1 0 ack 40 ------- 0 1.0 0.0 38 90
r 1.17664 1 0 ack 40 ------- 0 1.0 0.0 32 78
+ 1.17664 0 1 tcp 1040 ------- 0 0.0 1.0 52 91
- 1.18448 0 1 tcp 1040 ------- 0 0.0 1.0 46 79
r 1.18456 0 1 tcp 1040 ------- 0 0.0 1.0 39 65
+ 1.18456 1 0 ack 40 ------- 0 1.0 0.0 39 92
- 1.18456 1 0 ack 40 ------- 0 1.0 0.0 39 92
r 1.18496 1 0 ack 40 ------- 0 1.0 0.0 33 80
+ 1.18496 0 1 tcp 1040 ------- 0 0.0 1.0 53 93
- 1.1928 0 1 tcp 1040 ------- 0 0.0 1.0 47 81
r 1.19288 0 1 tcp 1040 ------- 0 0.0 1.0 40 67
+ 1.19288 1 0 ack 40 ------- 0 1.0 0.0 40 94
- 1.19288 1 0 ack 40 ------- 0 1.0 0.0 40 94
r 1.19328 1 0 ack 40 ------- 0 1.0 0.0 34 82
+ 1.19328 0 1 tcp 1040 ------- 0 0.0 1.0 54 95
- 1.20112 0 1 tcp 1040 ------- 0 0.0 1.0 48 83
r 1.2012 0 1 tcp 1040 ------- 0 0.0 1.0 41 69
+ 1.2012 1 0 ack 40 ------- 0 1.0 0.0 41 96
- 1.2012 1 0 ack 40 ------- 0 1.0 0.0 41 96
r 1.2016 1 0 ack 40 ------- 0 1.0 0.0 35 84
+ 1.2016 0 1 tcp 1040 ------- 0 0.0 1.0 55 97
- 1.20944 0 1 tcp 1040 ------- 0 0.0 1.0 49 85
r 1.20952 0 1 tcp 1040 ------- 0 0.0 1.0 42 71
+ 1.20952 1 0 ack 40 ------- 0 1.0 0.0 42 98
- 1.20952 1 0 ack 40 ------- 0 1.0 0.0 42 98
r 1.20992 1 0 ack 40 ------- 0 1.0 0.0 36 86
+ 1.20992 0 1 tcp 1040 ------- 0 0.0 1.0 56 99
- 1.21776 0 1 tcp 1040 ------- 0 0.0 1.0 50 87
r 1.21784 0 1 tcp 1040 ------- 0 0.0 1.0 43 73
+ 1.21784 1 0 ack 40 ------- 0 1.0 0.0 43 100
- 1.21784 1 0 ack 40 ------- 0 1.0 0.0 43 100
r 1.21824 1 0 ack 40 ------- 0 1.0 0.0 37 88
+ 1.21824 0 1 tcp 1040 ------- 0 0.0 1.0 57 101
- 1.22608 0 1 tcp 1040 ------- 0 0.0 1.0 51 89
r 1.22616 0 1 tcp 1040 ------- 0 0.0 1.0 44 75
+ 1.22616 1 0 ack 40 ------- 0 1.0 0.0 44 102
- 1.22616 1 0 ack 40 ------- 0 1.0 0.0 44 102
r 1.22656 1 0 ack 40 ------- 0 1.0 0.0 38 90
+ 1.22656 0 1 tcp 1040 ------- 0 0.0 1.0 58 103
- 1.2344 0 1 tcp 1040 ------- 0 0.0 1.0 52 91
r 1.23448 0 1 tcp 1040 ------- 0 0.0 1.0 45 77
+ 1.23448 1 0 ack 40 ------- 0 1.0 0.0 45 104
- 1.23448 1 0 ack 40 ------- 0 1.0 0.0 45 104
r 1.23488 1 0 ack 40 ------- 0 1.0 0.0 39 92
+ 1.23488 0 1 tcp 1040 ------- 0 0.0 1.0 59 105
- 1.24272 0 1 tcp 1040 ------- 0 0.0 1.0 53 93
r 1.2428 0 1 tcp 1040 ------- 0 0.0 1.0 46 79
+ 1.2428 1 0 ack 40 ------- 0 1.0 0.0 46 106
- 1.2428 1 0 ack 40 ------- 0 1.0 0.0 46 106
r 1.2432 1 0 ack 40 ------- 0 1.0 0.0 40 94
+ 1.2432 0 1 tcp 1040 ------- 0 0.0 1.0 60 107
- 1.25104 0 1 tcp 1040 ------- 0 0.0 1.0 54 95
r 1.25112 0 1 tcp 1040 ------- 0 0.0 1.0 47 81
+ 1.25112 1 0 ack 40 ------- 0 1.0 0.0 47 108
- 1.25112 1 0 ack 40 ------- 0 1.0 0.0 47 108
r 1.25152 1 0 ack 40 ------- 0 1.0 0.0 41 96
+ 1.25152 0 1 tcp 1040 ------- 0 0.0 1.0 61 109
- 1.25936 0 1 tcp 1040 ------- 0 0.0 1.0 55 97
r 1.25944 0 1 tcp 1040 ------- 0 0.0 1.0 48 83
+ 1.25944 1 0 ack 40 ------- 0 1.0 0.0 48 110
- 1.25944 1 0 ack 40 ------- 0 1.0 0.0 48 110
r 1.25984 1 0 ack 40 ------- 0 1.0 0.0 42 98
+ 1.25984 0 1 tcp 1040 ------- 0 0.0 1.0 62 111
- 1.26768 0 1 tcp 1040 ------- 0 0.0 1.0 56 99
r 1.26776 0 1 tcp 1040 ------- 0 0.0 1.0 49 85
+ 1.26776 1 0 ack 40 ------- 0 1.0 0.0 49 112
- 1.26776 1 0 ack 40 ------- 0 1.0 0.0 49 112
r 1.26816 1 0 ack 40 ------- 0 1.0 0.0 43 100
+ 1.26816 0 1 tcp 1040 ------- 0 0.0 1.0 63 113
- 1.276 0 1 tcp 1040 ------- 0 0.0 1.0 57 101
r 1.27608 0 1 tcp 1040 ------- 0 0.0 1.0 50 87
+ 1.27608 1 0 ack 40 ------- 0 1.0 0.0 50 114
- 1.27608 1 0 ack 40 ------- 0 1.0 0.0 50 114
r 1.27648 1 0 ack 40 ------- 0 1.0 0.0 44 102
+ 1.27648 0 1 tcp 1040 ------- 0 0.0 1.0 64 115
- 1.28432 0 1 tcp 1040 ------- 0 0.0 1.0 58 103
r 1.2844 0 1 tcp 1040 ------- 0 0.0 1.0 51 89
+ 1.2844 1 0 ack 40 ------- 0 1.0 0.0 51 116
- 1.2844 1 0 ack 40 ------- 0 1.0 0.0 51 116
r 1.2848 1 0 ack 40 ------- 0 1.0 0.0 45 104
+ 1.2848 0 1 tcp 1040 ------- 0 0.0 1.0 65 117
- 1.29264 0 1 tcp 1040 ------- 0 0.0 1.0 59 105
r 1.29272 0 1 tcp 1040 ------- 0 0.0 1.0 52 91
+ 1.29272 1 0 ack 40 ------- 0 1.0 0.0 52 118
- 1.29272 1 0 ack 40 ------- 0 1.0 0.0 52 118
r 1.29312 1 0 ack 40 ------- 0 1.0 0.0 46 106
+ 1.29312 0 1 tcp 1040 ------- 0 0.0 1.0 66 119
- 1.30096 0 1 tcp 1040 ------- 0 0.0 1.0 60 107
r 1.30104 0 1 tcp 1040 ------- 0 0.0 1.0 53 93
+ 1.30104 1 0 ack 40 ------- 0 1.0 0.0 53 120
- 1.30104 1 0 ack 40 ------- 0 1.0 0.0 53 120
r 1.30144 1 0 ack 40 ------- 0 1.0 0.0 47 108
+ 1.30144 0 1 tcp 1040 ------- 0 0.0 1.0 67 121
- 1.30928 0 1 tcp 1040 ------- 0 0.0 1.0 61 109
r 1.30936 0 1 tcp 1040 ------- 0 0.0 1.0 54 95
+ 1.30936 1 0 ack 40 ------- 0 1.0 0.0 54 122
- 1.30936 1 0 ack 40 ------- 0 1.0 0.0 54 122
r 1.30976 1 0 ack 40 ------- 0 1.0 0.0 48 110
+ 1.30976 0 1 tcp 1040 ------- 0 0.0 1.0 68 123
- 1.3176 0 1 tcp 1040 ------- 0 0.0 1.0 62 111
r 1.31768 0 1 tcp 1040 ------- 0 0.0 1.0 55 97
+ 1.31768 1 0 ack 40 ------- 0 1.0 0.0 55 124
- 1.31768 1 0 ack 40 ------- 0 1.0 0.0 55 124
r 1.31808 1 0 ack 40 ------- 0 1.0 0.0 49 112
+ 1.31808 0 1 tcp 1040 ------- 0 0.0 1.0 69 125
- 1.32592 0 1 tcp 1040 ------- 0 0.0 1.0 63 113
r 1.326 0 1 tcp 1040 ------- 0 0.0 1.0 56 99
+ 1.326 1 0 ack 40 ------- 0 1.0 0.0 56 126
- 1.326 1 0 ack 40 ------- 0 1.0 0.0 56 126
r 1.3264 1 0 ack 40 ------- 0 1.0 0.0 50 114
+ 1.3264 0 1 tcp 1040 ------- 0 0.0 1.0 70 127
- 1.33424 0 1 tcp 1040 ------- 0 0.0 1.0 64 115
r 1.33432 0 1 tcp 1040 ------- 0 0.0 1.0 57 101
+ 1.33432 1 0 ack 40 ------- 0 1.0 0.0 57 128
- 1.33432 1 0 ack 40 ------- 0 1.0 0.0 57 128
r 1.33472 1 0 ack 40 ------- 0 1.0 0.0 51 116
+ 1.33472 0 1 tcp 1040 ------- 0 0.0 1.0 71 129
- 1.34256 0 1 tcp 1040 ------- 0 0.0 1.0 65 117
r 1.34264 0 1 tcp 1040 ------- 0 0.0 1.0 58 103
+ 1.34264 1 0 ack 40 ------- 0 1.0 0.0 58 130
- 1.34264 1 0 ack 40 ------- 0 1.0 0.0 58 130
r 1.34304 1 0 ack 40 ------- 0 1.0 0.0 52 118
+ 1.34304 0 1 tcp 1040 ------- 0 0.0 1.0 72 131
- 1.35088 0 1 tcp 1040 ------- 0 0.0 1.0 66 119
r 1.35096 0 1 tcp 1040 ------- 0 0.0 1.0 59 105
+ 1.35096 1 0 ack 40 ------- 0 1.0 0.0 59 132
- 1.35096 1 0 ack 40 ------- 0 1.0 0.0 59 132
r 1.35136 1 0 ack 40 ------- 0 1.0 0.0 53 120
+ 1.35136 0 1 tcp 1040 ------- 0 0.0 1.0 73 133
- 1.3592 0 1 tcp 1040 ------- 0 0.0 1.0 67 121
r 1.35928 0 1 tcp 1040 ------- 0 0.0 1.0 60 107
+ 1.35928 1 0 ack 40 ------- 0 1.0 0.0 60 134
- 1.35928 1 0 ack 40 ------- 0 1.0 0.0 60 134
r 1.35968 1 0 ack 40 ------- 0 1.0 0.0 54 122
+ 1.35968 0 1 tcp 1040 ------- 0 0.0 1.0 74 135
- 1.36752 0 1 tcp 1040 ------- 0 0.0 1.0 68 123
r 1.3676 0 1 tcp 1040 ------- 0 0.0 1.0 61 109
+ 1.3676 1 0 ack 40 ------- 0 1.0 0.0 61 136
- 1.3676 1 0 ack 40 ------- 0 1.0 0.0 61 136
r 1.368 1 0 ack 40 ------- 0 1.0 0.0 55 124
+ 1.368 0 1 tcp 1040 ------- 0 0.0 1.0 75 137
- 1.37584 0 1 tcp 1040 ------- 0 0.0 1.0 69 125
r 1.37592 0 1 tcp 1040 ------- 0 0.0 1.0 62 111
+ 1.37592 1 0 ack 40 ------- 0 1.0 0.0 62 138
- 1.37592 1 0 ack 40 ------- 0 1.0 0.0 62 138
r 1.37632 1 0 ack 40 ------- 0 1.0 0.0 56 126
+ 1.37632 0 1 tcp 1040 ------- 0 0.0 1.0 76 139
- 1.38416 0 1 tcp 1040 ------- 0 0.0 1.0 70 127
r 1.38424 0 1 tcp 1040 ------- 0 0.0 1.0 63 113
+ 1.38424 1 0 ack 40 ------- 0 1.0 0.0 63 140
- 1.38424 1 0 ack 40 ------- 0 1.0 0.0 63 140
r 1.38464 1 0 ack 40 ------- 0 1.0 0.0 57 128
+ 1.38464 0 1 tcp 1040 ------- 0 0.0 1.0 77 141
- 1.39248 0 1 tcp 1040 ------- 0 0.0 1.0 71 129
r 1.39256 0 1 tcp 1040 ------- 0 0.0 1.0 64 115
+ 1.39256 1 0 ack 40 ------- 0 1.0 0.0 64 142
- 1.39256 1 0 ack 40 ------- 0 1.0 0.0 64 142
r 1.39296 1 0 ack 40 ------- 0 1.0 0.0 58 130
+ 1.39296 0 1 tcp 1040 ------- 0 0.0 1.0 78 143
- 1.4008 0 1 tcp 1040 ------- 0 0.0 1.0 72 131
r 1.40088 0 1 tcp 1040 ------- 0 0.0 1.0 65 117
+ 1.40088 1 0 ack 40 ------- 0 1.0 0.0 65 144
- 1.40088 1 0 ack 40 ------- 0 1.0 0.0 65 144
r 1.40128 1 0 ack 40 ------- 0 1.0 0.0 59 132
+ 1.40128 0 1 tcp 1040 ------- 0 0.0 1.0 79 145
- 1.40912 0 1 tcp 1040 ------- 0 0.0 1.0 73 133
r 1.4092 0 1 tcp 1040 ------- 0 0.0 1.0 66 119
+ 1.4092 1 0 ack 40 ------- 0 1.0 0.0 66 146
- 1.4092 1 0 ack 40 ------- 0 1.0 0.0 66 146
r 1.4096 1 0 ack 40 ------- 0 1.0 0.0 60 134
+ 1.4096 0 1 tcp 1040 ------- 0 0.0 1.0 80 147
- 1.41744 0 1 tcp 1040 ------- 0 0.0 1.0 74 135
r 1.41752 0 1 tcp 1040 ------- 0 0.0 1.0 67 121
+ 1.41752 1 0 ack 40 ------- 0 1.0 0.0 67 148
- 1.41752 1 0 ack 40 ------- 0 1.0 0.0 67 148
r 1.41792 1 0 ack 40 ------- 0 1.0 0.0 61 136
+ 1.41792 0 1 tcp 1040 ------- 0 0.0 1.0 81 149
- 1.42576 0 1 tcp 1040 ------- 0 0.0 1.0 75 137
r 1.42584 0 1 tcp 1040 ------- 0 0.0 1.0 68 123
+ 1.42584 1 0 ack 40 ------- 0 1.0 0.0 68 150
- 1.42584 1 0 ack 40 ------- 0 1.0 0.0 68 150
r 1.42624 1 0 ack 40 ------- 0 1.0 0.0 62 138
+ 1.42624 0 1 tcp 1040 ------- 0 0.0 1.0 82 151
- 1.43408 0 1 tcp 1040 ------- 0 0.0 1.0 76 139
r 1.43416 0 1 tcp 1040 ------- 0 0.0 1.0 69 125
+ 1.43416 1 0 ack 40 ------- 0 1.0 0.0 69 152
- 1.43416 1 0 ack 40 ------- 0 1.0 0.0 69 152
r 1.43456 1 0 ack 40 ------- 0 1.0 0.0 63 140
+ 1.43456 0 1 tcp 1040 ------- 0 0.0 1.0 83 153
- 1.4424 0 1 tcp 1040 ------- 0 0.0 1.0 77 141
r 1.44248 0 1 tcp 1040 ------- 0 0.0 1.0 70 127
+ 1.44248 1 0 ack 40 ------- 0 1.0 0.0 70 154
- 1.44248 1 0 ack 40 ------- 0 1.0 0.0 70 154
r 1.44288 1 0 ack 40 ------- 0 1.0 0.0 64 142
+ 1.44288 0 1 tcp 1040 ------- 0 0.0 1.0 84 155
- 1.45072 0 1 tcp 1040 ------- 0 0.0 1.0 78 143
r 1.4508 0 1 tcp 1040 ------- 0 0.0 1.0 71 129
+ 1.4508 1 0 ack 40 ------- 0 1.0 0.0 71 156
- 1.4508 1 0 ack 40 ------- 0 1.0 0.0 71 156
r 1.4512 1 0 ack 40 ------- 0 1.0 0.0 65 144
+ 1.4512 0 1 tcp 1040 ------- 0 0.0 1.0 85 157
- 1.45904 0 1 tcp 1040 ------- 0 0.0 1.0 79 145
r 1.45912 0 1 tcp 1040 ------- 0 0.0 1.0 72 131
+ 1.45912 1 0 ack 40 ------- 0 1.0 0.0 72 158
- 1.45912 1 0 ack 40 ------- 0 1.0 0.0 72 158
r 1.45952 1 0 ack 40 ------- 0 1.0 0.0 66 146
+ 1.45952 0 1 tcp 1040 ------- 0 0.0 1.0 86 159
- 1.46736 0 1 tcp 1040 ------- 0 0.0 1.0 80 147
r 1.46744 0 1 tcp 1040 ------- 0 0.0 1.0 73 133
+ 1.46744 1 0 ack 40 ------- 0 1.0 0.0 73 160
- 1.46744 1 0 ack 40 ------- 0 1.0 0.0 73 160
r 1.46784 1 0 ack 40 ------- 0 1.0 0.0 67 148
+ 1.46784 0 1 tcp 1040 ------- 0 0.0 1.0 87 161
- 1.47568 0 1 tcp 1040 ------- 0 0.0 1.0 81 149
r 1.47576 0 1 tcp 1040 ------- 0 0.0 1.0 74 135
+ 1.47576 1 0 ack 40 ------- 0 1.0 0.0 74 162
- 1.47576 1 0 ack 40 ------- 0 1.0 0.0 74 162
r 1.47616 1 0 ack 40 ------- 0 1.0 0.0 68 150
+ 1.47616 0 1 tcp 1040 ------- 0 0.0 1.0 88 163
- 1.484 0 1 tcp 1040 ------- 0 0.0 1.0 82 151
r 1.48408 0 1 tcp 1040 ------- 0 0.0 1.0 75 137
+ 1.48408 1 0 ack 40 ------- 0 1.0 0.0 75 164
- 1.48408 1 0 ack 40 ------- 0 1.0 0.0 75 164
r 1.48448 1 0 ack 40 ------- 0 1.0 0.0 69 152
+ 1.48448 0 1 tcp 1040 ------- 0 0.0 1.0 89 165
- 1.49232 0 1 tcp 1040 ------- 0 0.0 1.0 83 153
r 1.4924 0 1 tcp 1040 ------- 0 0.0 1.0 76 139
+ 1.4924 1 0 ack 40 ------- 0 1.0 0.0 76 166
- 1.4924 1 0 ack 40 ------- 0 1.0 0.0 76 166
r 1.4928 1 0 ack 40 ------- 0 1.0 0.0 70 154
+ 1.4928 0 1 tcp 1040 ------- 0 0.0 1.0 90 167
- 1.50064 0 1 tcp 1040 ------- 0 0.0 1.0 84 155
r 1.50072 0 1 tcp 1040 ------- 0 0.0 1.0 77 141
+ 1.50072 1 0 ack 40 ------- 0 1.0 0.0 77 168
- 1.50072 1 0 ack 40 ------- 0 1.0 0.0 77 168
r 1.50112 1 0 ack 40 ------- 0 1.0 0.0 71 156
+ 1.50112 0 1 tcp 1040 ------- 0 0.0 1.0 91 169
- 1.50896 0 1 tcp 1040 ------- 0 0.0 1.0 85 157
r 1.50904 0 1 tcp 1040 ------- 0 0.0 1.0 78 143
+ 1.50904 1 0 ack 40 ------- 0 1.0 0.0 78 170
- 1.50904 1 0 ack 40 ------- 0 1.0 0.0 78 170
r 1.50944 1 0 ack 40 ------- 0 1.0 0.0 72 158
+ 1.50944 0 1 tcp 1040 ------- 0 0.0 1.0 92 171
- 1.51728 0 1 tcp 1040 ------- 0 0.0 1.0 86 159
r 1.51736 0 1 tcp 1040 ------- 0 0.0 1.0 79 145
+ 1.51736 1 0 ack 40 ------- 0 1.0 0.0 79 172
- 1.51736 1 0 ack 40 ------- 0 1.0 0.0 79 172
r 1.51776 1 0 ack 40 ------- 0 1.0 0.0 73 160
+ 1.51776 0 1 tcp 1040 ------- 0 0.0 1.0 93 173
- 1.5256 0 1 tcp 1040 ------- 0 0.0 1.0 87 161
r 1.52568 0 1 tcp 1040 ------- 0 0.0 1.0 80 147
+ 1.52568 1 0 ack 40 ------- 0 1.0 0.0 80 174
- 1.52568 1 0 ack 40 ------- 0 1.0 0.0 80 174
r 1.52608 1 0 ack 40 ------- 0 1.0 0.0 74 162
+ 1.52608 0 1 tcp 1040 ------- 0 0.0 1.0 94 175
- 1.53392 0 1 tcp 1040 ------- 0 0.0 1.0 88 163
r 1.534 0 1 tcp 1040 ------- 0 0.0 1.0 81 149
+ 1.534 1 0 ack 40 ------- 0 1.0 0.0 81 176
- 1.534 1 0 ack 40 ------- 0 1.0 0.0 81 176
r 1.5344 1 0 ack 40 ------- 0 1.0 0.0 75 164
+ 1.5344 0 1 tcp 1040 ------- 0 0.0 1.0 95 177
- 1.54224 0 1 tcp 1040 ------- 0 0.0 1.0 89 165
r 1.54232 0 1 tcp 1040 ------- 0 0.0 1.0 82 151
+ 1.54232 1 0 ack 40 ------- 0 1.0 0.0 82 178
- 1.54232 1 0 ack 40 ------- 0 1.0 0.0 82 178
r 1.54272 1 0 ack 40 ------- 0 1.0 0.0 76 166
+ 1.54272 0 1 tcp 1040 ------- 0 0.0 1.0 96 179
- 1.55056 0 1 tcp 1040 ------- 0 0.0 1.0 90 167
r 1.55064 0 1 tcp 1040 ------- 0 0.0 1.0 83 153
+ 1.55064 1 0 ack 40 ------- 0 1.0 0.0 83 180
- 1.55064 1 0 ack 40 ------- 0 1.0 0.0 83 180
r 1.55104 1 0 ack 40 ------- 0 1.0 0.0 77 168
+ 1.55104 0 1 tcp 1040 ------- 0 0.0 1.0 97 181
- 1.55888 0 1 tcp 1040 ------- 0 0.0 1.0 91 169
r 1.55896 0 1 tcp 1040 ------- 0 0.0 1.0 84 155
+ 1.55896 1 0 ack 40 ------- 0 1.0 0.0 84 182
- 1.55896 1 0 ack 40 ------- 0 1.0 0.0 84 182
r 1.55936 1 0 ack 40 ------- 0 1.0 0.0 78 170
+ 1.55936 0 1 tcp 1040 ------- 0 0.0 1.0 98 183
- 1.5672 0 1 tcp 1040 ------- 0 0.0 1.0 92 171
r 1.56728 0 1 tcp 1040 ------- 0 0.0 1.0 85 157
+ 1.56728 1 0 ack 40 ------- 0 1.0 0.0 85 184
- 1.56728 1 0 ack 40 ------- 0 1.0 0.0 85 184
r 1.56768 1 0 ack 40 ------- 0 1.0 0.0 79 172
+ 1.56768 0 1 tcp 1040 ------- 0 0.0 1.0 99 185
- 1.57552 0 1 tcp 1040 ------- 0 0.0 1.0 93 173
r 1.5756 0 1 tcp 1040 ------- 0 0.0 1.0 86 159
+ 1.5756 1 0 ack 40 ------- 0 1.0 0.0 86 186
- 1.5756 1 0 ack 40 ------- 0 1.0 0.0 86 186
r 1.576 1 0 ack 40 ------- 0 1.0 0.0 80 174
+ 1.576 0 1 tcp 1040 ------- 0 0.0 1.0 100 187
- 1.58384 0 1 tcp 1040 ------- 0 0.0 1.0 94 175
r 1.58392 0 1 tcp 1040 ------- 0 0.0 1.0 87 161
+ 1.58392 1 0 ack 40 ------- 0 1.0 0.0 87 188
- 1.58392 1 0 ack 40 ------- 0 1.0 0.0 87 188
r 1.58432 1 0 ack 40 ------- 0 1.0 0.0 81 176
+ 1.58432 0 1 tcp 1040 ------- 0 0.0 1.0 101 189
- 1.59216 0 1 tcp 1040 ------- 0 0.0 1.0 95 177
r 1.59224 0 1 tcp 1040 ------- 0 0.0 1.0 88 163
+ 1.59224 1 0 ack 40 ------- 0 1.0 0.0 88 190
- 1.59224 1 0 ack 40 ------- 0 1.0 0.0 88 190
r 1.59264 1 0 ack 40 ------- 0 1.0 0.0 82 178
+ 1.59264 0 1 tcp 1040 ------- 0 0.0 1.0 102 191
- 1.60048 0 1 tcp 1040 ------- 0 0.0 1.0 96 179
r 1.60056 0 1 tcp 1040 ------- 0 0.0 1.0 89 165
+ 1.60056 1 0 ack 40 ------- 0 1.0 0.0 89 192
- 1.60056 1 0 ack 40 ------- 0 1.0 0.0 89 192
r 1.60096 1 0 ack 40 ------- 0 1.0 0.0 83 180
+ 1.60096 0 1 tcp 1040 ------- 0 0.0 1.0 103 193
- 1.6088 0 1 tcp 1040 ------- 0 0.0 1.0 97 181
r 1.60888 0 1 tcp 1040 ------- 0 0.0 1.0 90 167
+ 1.60888 1 0 ack 40 ------- 0 1.0 0.0 90 194
- 1.60888 1 0 ack 40 ------- 0 1.0 0.0 90 194
r 1.60928 1 0 ack 40 ------- 0 1.0 0.0 84 182
+ 1.60928 0 1 tcp 1040 ------- 0 0.0 1.0 104 195
- 1.61712 0 1 tcp 1040 ------- 0 0.0 1.0 98 183
r 1.6172 0 1 tcp 1040 ------- 0 0.0 1.0 91 169
+ 1.6172 1 0 ack 40 ------- 0 1.0 0.0 91 196
- 1.6172 1 0 ack 40 ------- 0 1.0 0.0 91 196
r 1.6176 1 0 ack 40 ------- 0 1.0 0.0 85 184
+ 1.6176 0 1 tcp 1040 ------- 0 0.0 1.0 105 197
- 1.62544 0 1 tcp 1040 ------- 0 0.0 1.0 99 185
r 1.62552 0 1 tcp 1040 ------- 0 0.0 1.0 92 171
+ 1.62552 1 0 ack 40 ------- 0 1.0 0.0 92 198
- 1.62552 1 0 ack 40 ------- 0 1.0 0.0 92 198
r 1.62592 1 0 ack 40 ------- 0 1.0 0.0 86 186
+ 1.62592 0 1 tcp 1040 ------- 0 0.0 1.0 106 199
- 1.63376 0 1 tcp 1040 ------- 0 0.0 1.0 100 187
r 1.63384 0 1 tcp 1040 ------- 0 0.0 1.0 93 173
+ 1.63384 1 0 ack 40 ------- 0 1.0 0.0 93 200
- 1.63384 1 0 ack 40 ------- 0 1.0 0.0 93 200
r 1.63424 1 0 ack 40 ------- 0 1.0 0.0 87 188
+ 1.63424 0 1 tcp 1040 ------- 0 0.0 1.0 107 201
- 1.64208 0 1 tcp 1040 ------- 0 0.0 1.0 101 189
r 1.64216 0 1 tcp 1040 ------- 0 0.0 1.0 94 175
+ 1.64216 1 0 ack 40 ------- 0 1.0 0.0 94 202
- 1.64216 1 0 ack 40 ------- 0 1.0 0.0 94 202
r 1.64256 1 0 ack 40 ------- 0 1.0 0.0 88 190
+ 1.64256 0 1 tcp 1040 ------- 0 0.0 1.0 108 203
- 1.6504 0 1 tcp 1040 ------- 0 0.0 1.0 102 191
r 1.65048 0 1 tcp 1040 ------- 0 0.0 1.0 95 177
+ 1.65048 1 0 ack 40 ------- 0 1.0 0.0 95 204
- 1.65048 1 0 ack 40 ------- 0 1.0 0.0 95 204
r 1.65088 1 0 ack 40 ------- 0 1.0 0.0 89 192
+ 1.65088 0 1 tcp 1040 ------- 0 0.0 1.0 109 205
- 1.65872 0 1 tcp 1040 ------- 0 0.0 1.0 103 193
r 1.6588 0 1 tcp 1040 ------- 0 0.0 1.0 96 179
+ 1.6588 1 0 ack 40 ------- 0 1.0 0.0 96 206
- 1.6588 1 0 ack 40 ------- 0 1.0 0.0 96 206
r 1.6592 1 0 ack 40 ------- 0 1.0 0.0 90 194
+ 1.6592 0 1 tcp 1040 ------- 0 0.0 1.0 110 207
- 1.66704 0 1 tcp 1040 ------- 0 0.0 1.0 104 195
r 1.66712 0 1 tcp 1040 ------- 0 0.0 1.0 97 181
+ 1.66712 1 0 ack 40 ------- 0 1.0 0.0 97 208
- 1.66712 1 0 ack 40 ------- 0 1.0 0.0 97 208
r 1.66752 1 0 ack 40 ------- 0 1.0 0.0 91 196
+ 1.66752 0 1 tcp 1040 ------- 0 0.0 1.0 111 209
- 1.67536 0 1 tcp 1040 ------- 0 0.0 1.0 105 197
r 1.67544 0 1 tcp 1040 ------- 0 0.0 1.0 98 183
+ 1.67544 1 0 ack 40 ------- 0 1.0 0.0 98 210
- 1.67544 1 0 ack 40 ------- 0 1.0 0.0 98 210
r 1.67584 1 0 ack 40 ------- 0 1.0 0.0 92 198
+ 1.67584 0 1 tcp 1040 ------- 0 0.0 1.0 112 211
- 1.68368 0 1 tcp 1040 ------- 0 0.0 1.0 106 199
r 1.68376 0 1 tcp 1040 ------- 0 0.0 1.0 99 185
+ 1.68376 1 0 ack 40 ------- 0 1.0 0.0 99 212
- 1.68376 1 0 ack 40 ------- 0 1.0 0.0 99 212
r 1.68416 1 0 ack 40 ------- 0 1.0 0.0 93 200
+ 1.68416 0 1 tcp 1040 ------- 0 0.0 1.0 113 213
- 1.692 0 1 tcp 1040 ------- 0 0.0 1.0 107 201
r 1.69208 0 1 tcp 1040 ------- 0 0.0 1.0 100 187
+ 1.69208 1 0 ack 40 ------- 0 1.0 0.0 100 214
- 1.69208 1 0 ack 40 ------- 0 1.0 0.0 100 214
r 1.69248 1 0 ack 40 ------- 0 1.0 0.0 94 202
+ 1.69248 0 1 tcp 1040 ------- 0 0.0 1.0 114 215
- 1.70032 0 1 tcp 1040 ------- 0 0.0 1.0 108 203
r 1.7004 0 1 tcp 1040 ------- 0 0.0 1.0 101 189
+ 1.7004 1 0 ack 40 ------- 0 1.0 0.0 101 216
- 1.7004 1 0 ack 40 ------- 0 1.0 0.0 101 216
r 1.7008 1 0 ack 40 ------- 0 1.0 0.0 95 204
+ 1.7008 0 1 tcp 1040 ------- 0 0.0 1.0 115 217
- 1.70864 0 1 tcp 1040 ------- 0 0.0 1.0 109 205
r 1.70872 0 1 tcp 1040 ------- 0 0.0 1.0 102 191
+ 1.70872 1 0 ack 40 ------- 0 1.0 0.0 102 218
- 1.70872 1 0 ack 40 ------- 0 1.0 0.0 102 218
r 1.70912 1 0 ack 40 ------- 0 1.0 0.0 96 206
+ 1.70912 0 1 tcp 1040 ------- 0 0.0 1.0 116 219
- 1.71696 0 1 tcp 1040 ------- 0 0.0 1.0 110 207
r 1.71704 0 1 tcp 1040 ------- 0 0.0 1.0 103 193
+ 1.71704 1 0 ack 40 ------- 0 1.0 0.0 103 220
- 1.71704 1 0 ack 40 ------- 0 1.0 0.0 103 220
r 1.71744 1 0 ack 40 ------- 0 1.0 0.0 97 208
+ 1.71744 0 1 tcp 1040 ------- 0 0.0 1.0 117 221
- 1.72528 0 1 tcp 1040 ------- 0 0.0 1.0 111 209
r 1.72536 0 1 tcp 1040 ------- 0 0.0 1.0 104 195
+ 1.72536 1 0 ack 40 ------- 0 1.0 0.0 104 222
- 1.72536 1 0 ack 40 ------- 0 1.0 0.0 104 222
r 1.72576 1 0 ack 40 ------- 0 1.0 0.0 98 210
+ 1.72576 0 1 tcp 1040 ------- 0 0.0 1.0 118 223
- 1.7336 0 1 tcp 1040 ------- 0 0.0 1.0 112 211
r 1.73368 0 1 tcp 1040 ------- 0 0.0 1.0 105 197
+ 1.73368 1 0 ack 40 ------- 0 1.0 0.0 105 224