+ 0.5 0 1 tcp 40 ------- 0 0.0 1.0 0 0
- 0.5 0 1 tcp 40 ------- 0 0.0 1.0 0 0
+ 0.5 1 2 tcp 40 ------- 0 1.0 2.0 0 1
- 0.5 1 2 tcp 40 ------- 0 1.0 2.0 0 1
r 0.5132 1 2 tcp 40 ------- 0 1.0 2.0 0 1
+ 0.5132 2 1 ack 40 ------- 0 2.0 1.0 0 2
- 0.5132 2 1 ack 40 ------- 0 2.0 1.0 0 2
r 0.5264 2 1 ack 40 ------- 0 2.0 1.0 0 2
+ 0.5264 1 2 tcp 1040 ------- 0 1.0 2.0 1 3
- 0.5264 1 2 tcp 1040 ------- 0 1.0 2.0 1 3
+ 0.5264 1 2 tcp 1040 ------- 0 1.0 2.0 2 4
r 0.55032 0 1 tcp 40 ------- 0 0.0 1.0 0 0
+ 0.55032 1 2 tcp 1040 ------- 0 1.0 2.0 3 5
- 0.6096 1 2 tcp 1040 ------- 0 1.0 2.0 2 4
r 0.6196 1 2 tcp 1040 ------- 0 1.0 2.0 1 3
+ 0.6196 2 1 ack 40 ------- 0 2.0 1.0 1 6
- 0.6196 2 1 ack 40 ------- 0 2.0 1.0 1 6
r 0.6328 2 1 ack 40 ------- 0 2.0 1.0 1 6
+ 0.6328 1 2 tcp 1040 ------- 0 1.0 2.0 4 7
- 0.6928 1 2 tcp 1040 ------- 0 1.0 2.0 3 5
r 0.7028 1 2 tcp 1040 ------- 0 1.0 2.0 2 4
+ 0.7028 2 1 ack 40 ------- 0 2.0 1.0 2 8
- 0.7028 2 1 ack 40 ------- 0 2.0 1.0 2 8
r 0.716 2 1 ack 40 ------- 0 2.0 1.0 2 8
+ 0.716 1 2 tcp 1040 ------- 0 1.0 2.0 5 9
+ 0.716 1 2 tcp 1040 ------- 0 1.0 2.0 6 10
- 0.776 1 2 tcp 1040 ------- 0 1.0 2.0 4 7
r 0.786 1 2 tcp 1040 ------- 0 1.0 2.0 3 5
+ 0.786 2 1 ack 40 ------- 0 2.0 1.0 3 11
- 0.786 2 1 ack 40 ------- 0 2.0 1.0 3 11
r 0.7992 2 1 ack 40 ------- 0 2.0 1.0 3 11
+ 0.7992 1 2 tcp 1040 ------- 0 1.0 2.0 7 12
+ 0.7992 1 2 tcp 1040 ------- 0 1.0 2.0 8 13
- 0.8592 1 2 tcp 1040 ------- 0 1.0 2.0 5 9
r 0.8692 1 2 tcp 1040 ------- 0 1.0 2.0 4 7
+ 0.8692 2 1 ack 40 ------- 0 2.0 1.0 4 14
- 0.8692 2 1 ack 40 ------- 0 2.0 1.0 4 14
r 0.8824 2 1 ack 40 ------- 0 2.0 1.0 4 14
+ 0.8824 1 2 tcp 1040 ------- 0 1.0 2.0 9 15
+ 0.8824 1 2 tcp 1040 ------- 0 1.0 2.0 10 16
- 0.9424 1 2 tcp 1040 ------- 0 1.0 2.0 6 10
r 0.9524 1 2 tcp 1040 ------- 0 1.0 2.0 5 9
+ 0.9524 2 1 ack 40 ------- 0 2.0 1.0 5 17
- 0.9524 2 1 ack 40 ------- 0 2.0 1.0 5 17
r 0.9656 2 1 ack 40 ------- 0 2.0 1.0 5 17
+ 0.9656 1 2 tcp 1040 ------- 0 1.0 2.0 11 18
+ 0.9656 1 2 tcp 1040 ------- 0 1.0 2.0 12 19
- 1.0256 1 2 tcp 1040 ------- 0 1.0 2.0 7 12
r 1.0356 1 2 tcp 1040 ------- 0 1.0 2.0 6 10
+ 1.0356 2 1 ack 40 ------- 0 2.0 1.0 6 20
- 1.0356 2 1 ack 40 ------- 0 2.0 1.0 6 20
r 1.0488 2 1 ack 40 ------- 0 2.0 1.0 6 20
+ 1.0488 1 2 tcp 1040 ------- 0 1.0 2.0 13 21
+ 1.0488 1 2 tcp 1040 ------- 0 1.0 2.0 14 22
- 1.1088 1 2 tcp 1040 ------- 0 1.0 2.0 8 13
r 1.1188 1 2 tcp 1040 ------- 0 1.0 2.0 7 12
+ 1.1188 2 1 ack 40 ------- 0 2.0 1.0 7 23
- 1.1188 2 1 ack 40 ------- 0 2.0 1.0 7 23
r 1.132 2 1 ack 40 ------- 0 2.0 1.0 7 23
+ 1.132 1 2 tcp 1040 ------- 0 1.0 2.0 15 24
+ 1.132 1 2 tcp 1040 ------- 0 1.0 2.0 16 25
- 1.192 1 2 tcp 1040 ------- 0 1.0 2.0 9 15
r 1.202 1 2 tcp 1040 ------- 0 1.0 2.0 8 13
+ 1.202 2 1 ack 40 ------- 0 2.0 1.0 8 26
- 1.202 2 1 ack 40 ------- 0 2.0 1.0 8 26
r 1.2152 2 1 ack 40 ------- 0 2.0 1.0 8 26
+ 1.2152 1 2 tcp 1040 ------- 0 1.0 2.0 17 27
+ 1.2152 1 2 tcp 1040 ------- 0 1.0 2.0 18 28
- 1.2752 1 2 tcp 1040 ------- 0 1.0 2.0 10 16
r 1.2852 1 2 tcp 1040 ------- 0 1.0 2.0 9 15
+ 1.2852 2 1 ack 40 ------- 0 2.0 1.0 9 29
- 1.2852 2 1 ack 40 ------- 0 2.0 1.0 9 29
r 1.2984 2 1 ack 40 ------- 0 2.0 1.0 9 29
+ 1.2984 1 2 tcp 1040 ------- 0 1.0 2.0 19 30
+ 1.2984 1 2 tcp 1040 ------- 0 1.0 2.0 20 31
d 1.2984 1 2 tcp 1040 ------- 0 1.0 2.0 20 31
- 1.3584 1 2 tcp 1040 ------- 0 1.0 2.0 11 18
r 1.3684 1 2 tcp 1040 ------- 0 1.0 2.0 10 16
+ 1.3684 2 1 ack 40 ------- 0 2.0 1.0 10 32
- 1.3684 2 1 ack 40 ------- 0 2.0 1.0 10 32
r 1.3816 2 1 ack 40 ------- 0 2.0 1.0 10 32
+ 1.3816 1 2 tcp 1040 ------- 0 1.0 2.0 21 33
+ 1.3816 1 2 tcp 1040 ------- 0 1.0 2.0 22 34
d 1.3816 1 2 tcp 1040 ------- 0 1.0 2.0 22 34
- 1.4416 1 2 tcp 1040 ------- 0 1.0 2.0 12 19
r 1.4516 1 2 tcp 1040 ------- 0 1.0 2.0 11 18
+ 1.4516 2 1 ack 40 ------- 0 2.0 1.0 11 35
- 1.4516 2 1 ack 40 ------- 0 2.0 1.0 11 35
r 1.4648 2 1 ack 40 ------- 0 2.0 1.0 11 35
+ 1.4648 1 2 tcp 1040 ------- 0 1.0 2.0 23 36
+ 1.4648 1 2 tcp 1040 ------- 0 1.0 2.0 24 37
d 1.4648 1 2 tcp 1040 ------- 0 1.0 2.0 24 37
- 1.5248 1 2 tcp 1040 ------- 0 1.0 2.0 13 21
r 1.5348 1 2 tcp 1040 ------- 0 1.0 2.0 12 19
+ 1.5348 2 1 ack 40 ------- 0 2.0 1.0 12 38
- 1.5348 2 1 ack 40 ------- 0 2.0 1.0 12 38
r 1.548 2 1 ack 40 ------- 0 2.0 1.0 12 38
+ 1.548 1 2 tcp 1040 ------- 0 1.0 2.0 25 39
+ 1.548 1 2 tcp 1040 ------- 0 1.0 2.0 26 40
d 1.548 1 2 tcp 1040 ------- 0 1.0 2.0 26 40
- 1.608 1 2 tcp 1040 ------- 0 1.0 2.0 14 22
r 1.618 1 2 tcp 1040 ------- 0 1.0 2.0 13 21
+ 1.618 2 1 ack 40 ------- 0 2.0 1.0 13 41
- 1.618 2 1 ack 40 ------- 0 2.0 1.0 13 41
r 1.6312 2 1 ack 40 ------- 0 2.0 1.0 13 41
+ 1.6312 1 2 tcp 1040 ------- 0 1.0 2.0 27 42
+ 1.6312 1 2 tcp 1040 ------- 0 1.0 2.0 28 43
d 1.6312 1 2 tcp 1040 ------- 0 1.0 2.0 28 43
- 1.6912 1 2 tcp 1040 ------- 0 1.0 2.0 15 24
r 1.7012 1 2 tcp 1040 ------- 0 1.0 2.0 14 22
+ 1.7012 2 1 ack 40 ------- 0 2.0 1.0 14 44
- 1.7012 2 1 ack 40 ------- 0 2.0 1.0 14 44
r 1.7144 2 1 ack 40 ------- 0 2.0 1.0 14 44
+ 1.7144 1 2 tcp 1040 ------- 0 1.0 2.0 29 45
+ 1.7144 1 2 tcp 1040 ------- 0 1.0 2.0 30 46
d 1.7144 1 2 tcp 1040 ------- 0 1.0 2.0 30 46
- 1.7744 1 2 tcp 1040 ------- 0 1.0 2.0 16 25
r 1.7844 1 2 tcp 1040 ------- 0 1.0 2.0 15 24
+ 1.7844 2 1 ack 40 ------- 0 2.0 1.0 15 47
- 1.7844 2 1 ack 40 ------- 0 2.0 1.0 15 47
r 1.7976 2 1 ack 40 ------- 0 2.0 1.0 15 47
+ 1.7976 1 2 tcp 1040 ------- 0 1.0 2.0 31 48
+ 1.7976 1 2 tcp 1040 ------- 0 1.0 2.0 32 49
d 1.7976 1 2 tcp 1040 ------- 0 1.0 2.0 32 49
- 1.8576 1 2 tcp 1040 ------- 0 1.0 2.0 17 27
r 1.8676 1 2 tcp 1040 ------- 0 1.0 2.0 16 25
+ 1.8676 2 1 ack 40 ------- 0 2.0 1.0 16 50
- 1.8676 2 1 ack 40 ------- 0 2.0 1.0 16 50
r 1.8808 2 1 ack 40 ------- 0 2.0 1.0 16 50
+ 1.8808 1 2 tcp 1040 ------- 0 1.0 2.0 33 51
+ 1.8808 1 2 tcp 1040 ------- 0 1.0 2.0 34 52
d 1.8808 1 2 tcp 1040 ------- 0 1.0 2.0 34 52
- 1.9408 1 2 tcp 1040 ------- 0 1.0 2.0 18 28
r 1.9508 1 2 tcp 1040 ------- 0 1.0 2.0 17 27
+ 1.9508 2 1 ack 40 ------- 0 2.0 1.0 17 53
- 1.9508 2 1 ack 40 ------- 0 2.0 1.0 17 53
r 1.964 2 1 ack 40 ------- 0 2.0 1.0 17 53
+ 1.964 1 2 tcp 1040 ------- 0 1.0 2.0 35 54
+ 1.964 1 2 tcp 1040 ------- 0 1.0 2.0 36 55
d 1.964 1 2 tcp 1040 ------- 0 1.0 2.0 36 55
- 2.024 1 2 tcp 1040 ------- 0 1.0 2.0 19 30
r 2.034 1 2 tcp 1040 ------- 0 1.0 2.0 18 28
+ 2.034 2 1 ack 40 ------- 0 2.0 1.0 18 56
- 2.034 2 1 ack 40 ------- 0 2.0 1.0 18 56
r 2.0472 2 1 ack 40 ------- 0 2.0 1.0 18 56
+ 2.0472 1 2 tcp 1040 ------- 0 1.0 2.0 37 57
+ 2.0472 1 2 tcp 1040 ------- 0 1.0 2.0 38 58
d 2.0472 1 2 tcp 1040 ------- 0 1.0 2.0 38 58
- 2.1072 1 2 tcp 1040 ------- 0 1.0 2.0 21 33
r 2.1172 1 2 tcp 1040 ------- 0 1.0 2.0 19 30
+ 2.1172 2 1 ack 40 ------- 0 2.0 1.0 19 59
- 2.1172 2 1 ack 40 ------- 0 2.0 1.0 19 59
r 2.1304 2 1 ack 40 ------- 0 2.0 1.0 19 59
+ 2.1304 1 2 tcp 1040 ------- 0 1.0 2.0 39 60
- 2.1904 1 2 tcp 1040 ------- 0 1.0 2.0 23 36
r 2.2004 1 2 tcp 1040 ------- 0 1.0 2.0 21 33
+ 2.2004 2 1 ack 40 ------- 0 2.0 1.0 19 61
- 2.2004 2 1 ack 40 ------- 0 2.0 1.0 19 61
r 2.2136 2 1 ack 40 ------- 0 2.0 1.0 19 61
- 2.2736 1 2 tcp 1040 ------- 0 1.0 2.0 25 39
r 2.2836 1 2 tcp 1040 ------- 0 1.0 2.0 23 36
+ 2.2836 2 1 ack 40 ------- 0 2.0 1.0 19 62
- 2.2836 2 1 ack 40 ------- 0 2.0 1.0 19 62
r 2.2968 2 1 ack 40 ------- 0 2.0 1.0 19 62
- 2.3568 1 2 tcp 1040 ------- 0 1.0 2.0 27 42
r 2.3668 1 2 tcp 1040 ------- 0 1.0 2.0 25 39
+ 2.3668 2 1 ack 40 ------- 0 2.0 1.0 19 63
- 2.3668 2 1 ack 40 ------- 0 2.0 1.0 19 63
r 2.38 2 1 ack 40 ------- 0 2.0 1.0 19 63
+ 2.38 1 2 tcp 1040 ---A--- 0 1.0 2.0 20 64
- 2.44 1 2 tcp 1040 ------- 0 1.0 2.0 29 45
r 2.45 1 2 tcp 1040 ------- 0 1.0 2.0 27 42
+ 2.45 2 1 ack 40 ------- 0 2.0 1.0 19 65
- 2.45 2 1 ack 40 ------- 0 2.0 1.0 19 65
r 2.4632 2 1 ack 40 ------- 0 2.0 1.0 19 65
- 2.5232 1 2 tcp 1040 ------- 0 1.0 2.0 31 48
r 2.5332 1 2 tcp 1040 ------- 0 1.0 2.0 29 45
+ 2.5332 2 1 ack 40 ------- 0 2.0 1.0 19 66
- 2.5332 2 1 ack 40 ------- 0 2.0 1.0 19 66
r 2.5464 2 1 ack 40 ------- 0 2.0 1.0 19 66
- 2.6064 1 2 tcp 1040 ------- 0 1.0 2.0 33 51
r 2.6164 1 2 tcp 1040 ------- 0 1.0 2.0 31 48
+ 2.6164 2 1 ack 40 ------- 0 2.0 1.0 19 67
- 2.6164 2 1 ack 40 ------- 0 2.0 1.0 19 67
r 2.6296 2 1 ack 40 ------- 0 2.0 1.0 19 67
- 2.6896 1 2 tcp 1040 ------- 0 1.0 2.0 35 54
r 2.6996 1 2 tcp 1040 ------- 0 1.0 2.0 33 51
+ 2.6996 2 1 ack 40 ------- 0 2.0 1.0 19 68
- 2.6996 2 1 ack 40 ------- 0 2.0 1.0 19 68
r 2.7128 2 1 ack 40 ------- 0 2.0 1.0 19 68
- 2.7728 1 2 tcp 1040 ------- 0 1.0 2.0 37 57
r 2.7828 1 2 tcp 1040 ------- 0 1.0 2.0 35 54
+ 2.7828 2 1 ack 40 ------- 0 2.0 1.0 19 69
- 2.7828 2 1 ack 40 ------- 0 2.0 1.0 19 69
r 2.796 2 1 ack 40 ------- 0 2.0 1.0 19 69
- 2.856 1 2 tcp 1040 ------- 0 1.0 2.0 39 60
r 2.866 1 2 tcp 1040 ------- 0 1.0 2.0 37 57
+ 2.866 2 1 ack 40 ------- 0 2.0 1.0 19 70
- 2.866 2 1 ack 40 ------- 0 2.0 1.0 19 70
r 2.8792 2 1 ack 40 ------- 0 2.0 1.0 19 70
- 2.9392 1 2 tcp 1040 ---A--- 0 1.0 2.0 20 64
r 2.9492 1 2 tcp 1040 ------- 0 1.0 2.0 39 60
+ 2.9492 2 1 ack 40 ------- 0 2.0 1.0 19 71
- 2.9492 2 1 ack 40 ------- 0 2.0 1.0 19 71
r 2.9624 2 1 ack 40 ------- 0 2.0 1.0 19 71
r 3.0324 1 2 tcp 1040 ---A--- 0 1.0 2.0 20 64
+ 3.0324 2 1 ack 40 ------- 0 2.0 1.0 21 72
- 3.0324 2 1 ack 40 ------- 0 2.0 1.0 21 72
r 3.0456 2 1 ack 40 ------- 0 2.0 1.0 21 72
+ 3.0456 1 2 tcp 1040 ------- 0 1.0 2.0 22 73
- 3.0456 1 2 tcp 1040 ------- 0 1.0 2.0 22 73
+ 3.0456 1 2 tcp 1040 ------- 0 1.0 2.0 23 74
- 3.1288 1 2 tcp 1040 ------- 0 1.0 2.0 23 74
r 3.1388 1 2 tcp 1040 ------- 0 1.0 2.0 22 73
+ 3.1388 2 1 ack 40 ------- 0 2.0 1.0 23 75
- 3.1388 2 1 ack 40 ------- 0 2.0 1.0 23 75
r 3.152 2 1 ack 40 ------- 0 2.0 1.0 23 75
+ 3.152 1 2 tcp 1040 ------- 0 1.0 2.0 24 76
+ 3.152 1 2 tcp 1040 ------- 0 1.0 2.0 25 77
+ 3.152 1 2 tcp 1040 ------- 0 1.0 2.0 26 78
- 3.212 1 2 tcp 1040 ------- 0 1.0 2.0 24 76
r 3.222 1 2 tcp 1040 ------- 0 1.0 2.0 23 74
+ 3.222 2 1 ack 40 ------- 0 2.0 1.0 23 79
- 3.222 2 1 ack 40 ------- 0 2.0 1.0 23 79
r 3.2352 2 1 ack 40 ------- 0 2.0 1.0 23 79
+ 3.2352 1 2 tcp 1040 ------- 0 1.0 2.0 27 80
- 3.2952 1 2 tcp 1040 ------- 0 1.0 2.0 25 77
r 3.3052 1 2 tcp 1040 ------- 0 1.0 2.0 24 76
+ 3.3052 2 1 ack 40 ------- 0 2.0 1.0 25 81
- 3.3052 2 1 ack 40 ------- 0 2.0 1.0 25 81
r 3.3184 2 1 ack 40 ------- 0 2.0 1.0 25 81
+ 3.3184 1 2 tcp 1040 ------- 0 1.0 2.0 28 82
+ 3.3184 1 2 tcp 1040 ------- 0 1.0 2.0 29 83
- 3.3784 1 2 tcp 1040 ------- 0 1.0 2.0 26 78
r 3.3884 1 2 tcp 1040 ------- 0 1.0 2.0 25 77
+ 3.3884 2 1 ack 40 ------- 0 2.0 1.0 25 84
- 3.3884 2 1 ack 40 ------- 0 2.0 1.0 25 84
r 3.4016 2 1 ack 40 ------- 0 2.0 1.0 25 84
+ 3.4016 1 2 tcp 1040 ------- 0 1.0 2.0 30 85
- 3.4616 1 2 tcp 1040 ------- 0 1.0 2.0 27 80
r 3.4716 1 2 tcp 1040 ------- 0 1.0 2.0 26 78
+ 3.4716 2 1 ack 40 ------- 0 2.0 1.0 27 86
- 3.4716 2 1 ack 40 ------- 0 2.0 1.0 27 86
r 3.4848 2 1 ack 40 ------- 0 2.0 1.0 27 86
+ 3.4848 1 2 tcp 1040 ------- 0 1.0 2.0 31 87
+ 3.4848 1 2 tcp 1040 ------- 0 1.0 2.0 32 88
+ 3.5 0 1 tcp 40 ---A--- 0 0.0 1.0 0 89
- 3.5 0 1 tcp 40 ---A--- 0 0.0 1.0 0 89
- 3.5448 1 2 tcp 1040 ------- 0 1.0 2.0 28 82
r 3.55032 0 1 tcp 40 ---A--- 0 0.0 1.0 0 89
r 3.5548 1 2 tcp 1040 ------- 0 1.0 2.0 27 80
+ 3.5548 2 1 ack 40 ------- 0 2.0 1.0 27 90
- 3.5548 2 1 ack 40 ------- 0 2.0 1.0 27 90
r 3.568 2 1 ack 40 ------- 0 2.0 1.0 27 90
+ 3.568 1 2 tcp 1040 ------- 0 1.0 2.0 33 91
- 3.628 1 2 tcp 1040 ------- 0 1.0 2.0 29 83
r 3.638 1 2 tcp 1040 ------- 0 1.0 2.0 28 82
+ 3.638 2 1 ack 40 ------- 0 2.0 1.0 29 92
- 3.638 2 1 ack 40 ------- 0 2.0 1.0 29 92
r 3.6512 2 1 ack 40 ------- 0 2.0 1.0 29 92
+ 3.6512 1 2 tcp 1040 ------- 0 1.0 2.0 34 93
+ 3.6512 1 2 tcp 1040 ------- 0 1.0 2.0 35 94
- 3.7112 1 2 tcp 1040 ------- 0 1.0 2.0 30 85
r 3.7212 1 2 tcp 1040 ------- 0 1.0 2.0 29 83
+ 3.7212 2 1 ack 40 ------- 0 2.0 1.0 29 95
- 3.7212 2 1 ack 40 ------- 0 2.0 1.0 29 95
r 3.7344 2 1 ack 40 ------- 0 2.0 1.0 29 95
+ 3.7344 1 2 tcp 1040 ------- 0 1.0 2.0 36 96
- 3.7944 1 2 tcp 1040 ------- 0 1.0 2.0 31 87
r 3.8044 1 2 tcp 1040 ------- 0 1.0 2.0 30 85
+ 3.8044 2 1 ack 40 ------- 0 2.0 1.0 31 97
- 3.8044 2 1 ack 40 ------- 0 2.0 1.0 31 97
r 3.8176 2 1 ack 40 ------- 0 2.0 1.0 31 97
+ 3.8176 1 2 tcp 1040 ------- 0 1.0 2.0 37 98
+ 3.8176 1 2 tcp 1040 ------- 0 1.0 2.0 38 99
- 3.8776 1 2 tcp 1040 ------- 0 1.0 2.0 32 88
r 3.8876 1 2 tcp 1040 ------- 0 1.0 2.0 31 87
+ 3.8876 2 1 ack 40 ------- 0 2.0 1.0 31 100
- 3.8876 2 1 ack 40 ------- 0 2.0 1.0 31 100
r 3.9008 2 1 ack 40 ------- 0 2.0 1.0 31 100
+ 3.9008 1 2 tcp 1040 ------- 0 1.0 2.0 39 101
- 3.9608 1 2 tcp 1040 ------- 0 1.0 2.0 33 91
r 3.9708 1 2 tcp 1040 ------- 0 1.0 2.0 32 88
+ 3.9708 2 1 ack 40 ------- 0 2.0 1.0 33 102
- 3.9708 2 1 ack 40 ------- 0 2.0 1.0 33 102
r 3.984 2 1 ack 40 ------- 0 2.0 1.0 33 102
+ 3.984 1 2 tcp 1040 ------- 0 1.0 2.0 40 103
+ 3.984 1 2 tcp 1040 ------- 0 1.0 2.0 41 104
- 4.044 1 2 tcp 1040 ------- 0 1.0 2.0 34 93
r 4.054 1 2 tcp 1040 ------- 0 1.0 2.0 33 91
+ 4.054 2 1 ack 40 ------- 0 2.0 1.0 33 105
- 4.054 2 1 ack 40 ------- 0 2.0 1.0 33 105
r 4.0672 2 1 ack 40 ------- 0 2.0 1.0 33 105
+ 4.0672 1 2 tcp 1040 ------- 0 1.0 2.0 42 106
- 4.1272 1 2 tcp 1040 ------- 0 1.0 2.0 35 94
r 4.1372 1 2 tcp 1040 ------- 0 1.0 2.0 34 93
+ 4.1372 2 1 ack 40 ------- 0 2.0 1.0 35 107
- 4.1372 2 1 ack 40 ------- 0 2.0 1.0 35 107
r 4.1504 2 1 ack 40 ------- 0 2.0 1.0 35 107
+ 4.1504 1 2 tcp 1040 ------- 0 1.0 2.0 43 108
+ 4.1504 1 2 tcp 1040 ------- 0 1.0 2.0 44 109
- 4.2104 1 2 tcp 1040 ------- 0 1.0 2.0 36 96
r 4.2204 1 2 tcp 1040 ------- 0 1.0 2.0 35 94
+ 4.2204 2 1 ack 40 ------- 0 2.0 1.0 35 110
- 4.2204 2 1 ack 40 ------- 0 2.0 1.0 35 110
r 4.2336 2 1 ack 40 ------- 0 2.0 1.0 35 110
+ 4.2336 1 2 tcp 1040 ------- 0 1.0 2.0 45 111
- 4.2936 1 2 tcp 1040 ------- 0 1.0 2.0 37 98
r 4.3036 1 2 tcp 1040 ------- 0 1.0 2.0 36 96
+ 4.3036 2 1 ack 40 ------- 0 2.0 1.0 37 112
- 4.3036 2 1 ack 40 ------- 0 2.0 1.0 37 112
r 4.3168 2 1 ack 40 ------- 0 2.0 1.0 37 112
+ 4.3168 1 2 tcp 1040 ------- 0 1.0 2.0 46 113
+ 4.3168 1 2 tcp 1040 ------- 0 1.0 2.0 47 114
d 4.3168 1 2 tcp 1040 ------- 0 1.0 2.0 47 114
- 4.3768 1 2 tcp 1040 ------- 0 1.0 2.0 38 99
r 4.3868 1 2 tcp 1040 ------- 0 1.0 2.0 37 98
+ 4.3868 2 1 ack 40 ------- 0 2.0 1.0 37 115
- 4.3868 2 1 ack 40 ------- 0 2.0 1.0 37 115
r 4.4 2 1 ack 40 ------- 0 2.0 1.0 37 115
+ 4.4 1 2 tcp 1040 ------- 0 1.0 2.0 48 116
- 4.46 1 2 tcp 1040 ------- 0 1.0 2.0 39 101
r 4.47 1 2 tcp 1040 ------- 0 1.0 2.0 38 99
+ 4.47 2 1 ack 40 ------- 0 2.0 1.0 39 117
- 4.47 2 1 ack 40 ------- 0 2.0 1.0 39 117
r 4.4832 2 1 ack 40 ------- 0 2.0 1.0 39 117
+ 4.4832 1 2 tcp 1040 ------- 0 1.0 2.0 49 118
- 4.5432 1 2 tcp 1040 ------- 0 1.0 2.0 40 103
r 4.5532 1 2 tcp 1040 ------- 0 1.0 2.0 39 101
+ 4.5532 2 1 ack 40 ------- 0 2.0 1.0 39 119
- 4.5532 2 1 ack 40 ------- 0 2.0 1.0 39 119
r 4.5664 2 1 ack 40 ------- 0 2.0 1.0 39 119
+ 4.5664 1 2 tcp 1040 ------- 0 1.0 2.0 50 120
- 4.6264 1 2 tcp 1040 ------- 0 1.0 2.0 41 104
r 4.6364 1 2 tcp 1040 ------- 0 1.0 2.0 40 103
+ 4.6364 2 1 ack 40 ------- 0 2.0 1.0 40 121
- 4.6364 2 1 ack 40 ------- 0 2.0 1.0 40 121
r 4.6496 2 1 ack 40 ------- 0 2.0 1.0 40 121
- 4.7096 1 2 tcp 1040 ------- 0 1.0 2.0 42 106
r 4.7196 1 2 tcp 1040 ------- 0 1.0 2.0 41 104
+ 4.7196 2 1 ack 40 ------- 0 2.0 1.0 41 122
- 4.7196 2 1 ack 40 ------- 0 2.0 1.0 41 122
r 4.7328 2 1 ack 40 ------- 0 2.0 1.0 41 122
+ 4.7328 1 2 tcp 1040 ------- 0 1.0 2.0 51 123
- 4.7928 1 2 tcp 1040 ------- 0 1.0 2.0 43 108
r 4.8028 1 2 tcp 1040 ------- 0 1.0 2.0 42 106
+ 4.8028 2 1 ack 40 ------- 0 2.0 1.0 42 124
- 4.8028 2 1 ack 40 ------- 0 2.0 1.0 42 124
r 4.816 2 1 ack 40 ------- 0 2.0 1.0 42 124
+ 4.816 1 2 tcp 1040 ------- 0 1.0 2.0 52 125
- 4.876 1 2 tcp 1040 ------- 0 1.0 2.0 44 109
r 4.886 1 2 tcp 1040 ------- 0 1.0 2.0 43 108
+ 4.886 2 1 ack 40 ------- 0 2.0 1.0 43 126
- 4.886 2 1 ack 40 ------- 0 2.0 1.0 43 126
r 4.8992 2 1 ack 40 ------- 0 2.0 1.0 43 126
+ 4.8992 1 2 tcp 1040 ------- 0 1.0 2.0 53 127
- 4.9592 1 2 tcp 1040 ------- 0 1.0 2.0 45 111
r 4.9692 1 2 tcp 1040 ------- 0 1.0 2.0 44 109
+ 4.9692 2 1 ack 40 ------- 0 2.0 1.0 44 128
- 4.9692 2 1 ack 40 ------- 0 2.0 1.0 44 128
r 4.9824 2 1 ack 40 ------- 0 2.0 1.0 44 128
+ 4.9824 1 2 tcp 1040 ------- 0 1.0 2.0 54 129
- 5.0424 1 2 tcp 1040 ------- 0 1.0 2.0 46 113
r 5.0524 1 2 tcp 1040 ------- 0 1.0 2.0 45 111
+ 5.0524 2 1 ack 40 ------- 0 2.0 1.0 45 130
- 5.0524 2 1 ack 40 ------- 0 2.0 1.0 45 130
r 5.0656 2 1 ack 40 ------- 0 2.0 1.0 45 130
+ 5.0656 1 2 tcp 1040 ------- 0 1.0 2.0 55 131
- 5.1256 1 2 tcp 1040 ------- 0 1.0 2.0 48 116
r 5.1356 1 2 tcp 1040 ------- 0 1.0 2.0 46 113
+ 5.1356 2 1 ack 40 ------- 0 2.0 1.0 46 132
- 5.1356 2 1 ack 40 ------- 0 2.0 1.0 46 132
r 5.1488 2 1 ack 40 ------- 0 2.0 1.0 46 132
+ 5.1488 1 2 tcp 1040 ------- 0 1.0 2.0 56 133
- 5.2088 1 2 tcp 1040 ------- 0 1.0 2.0 49 118
r 5.2188 1 2 tcp 1040 ------- 0 1.0 2.0 48 116
+ 5.2188 2 1 ack 40 ------- 0 2.0 1.0 46 134
- 5.2188 2 1 ack 40 ------- 0 2.0 1.0 46 134
r 5.232 2 1 ack 40 ------- 0 2.0 1.0 46 134
+ 5.232 1 2 tcp 1040 ------- 0 1.0 2.0 57 135
- 5.292 1 2 tcp 1040 ------- 0 1.0 2.0 50 120
r 5.302 1 2 tcp 1040 ------- 0 1.0 2.0 49 118
+ 5.302 2 1 ack 40 ------- 0 2.0 1.0 46 136
- 5.302 2 1 ack 40 ------- 0 2.0 1.0 46 136
r 5.3152 2 1 ack 40 ------- 0 2.0 1.0 46 136
+ 5.3152 1 2 tcp 1040 ------- 0 1.0 2.0 58 137
- 5.3752 1 2 tcp 1040 ------- 0 1.0 2.0 51 123
r 5.3852 1 2 tcp 1040 ------- 0 1.0 2.0 50 120
+ 5.3852 2 1 ack 40 ------- 0 2.0 1.0 46 138
- 5.3852 2 1 ack 40 ------- 0 2.0 1.0 46 138
r 5.3984 2 1 ack 40 ------- 0 2.0 1.0 46 138
+ 5.3984 1 2 tcp 1040 ---A--- 0 1.0 2.0 47 139
- 5.4584 1 2 tcp 1040 ------- 0 1.0 2.0 52 125
r 5.4684 1 2 tcp 1040 ------- 0 1.0 2.0 51 123
+ 5.4684 2 1 ack 40 ------- 0 2.0 1.0 46 140
- 5.4684 2 1 ack 40 ------- 0 2.0 1.0 46 140
r 5.4816 2 1 ack 40 ------- 0 2.0 1.0 46 140
- 5.5416 1 2 tcp 1040 ------- 0 1.0 2.0 53 127
r 5.5516 1 2 tcp 1040 ------- 0 1.0 2.0 52 125
+ 5.5516 2 1 ack 40 ------- 0 2.0 1.0 46 141
- 5.5516 2 1 ack 40 ------- 0 2.0 1.0 46 141
r 5.5648 2 1 ack 40 ------- 0 2.0 1.0 46 141
- 5.6248 1 2 tcp 1040 ------- 0 1.0 2.0 54 129
r 5.6348 1 2 tcp 1040 ------- 0 1.0 2.0 53 127
+ 5.6348 2 1 ack 40 ------- 0 2.0 1.0 46 142
- 5.6348 2 1 ack 40 ------- 0 2.0 1.0 46 142
r 5.648 2 1 ack 40 ------- 0 2.0 1.0 46 142
- 5.708 1 2 tcp 1040 ------- 0 1.0 2.0 55 131
r 5.718 1 2 tcp 1040 ------- 0 1.0 2.0 54 129
+ 5.718 2 1 ack 40 ------- 0 2.0 1.0 46 143
- 5.718 2 1 ack 40 ------- 0 2.0 1.0 46 143
r 5.7312 2 1 ack 40 ------- 0 2.0 1.0 46 143
- 5.7912 1 2 tcp 1040 ------- 0 1.0 2.0 56 133
r 5.8012 1 2 tcp 1040 ------- 0 1.0 2.0 55 131
+ 5.8012 2 1 ack 40 ------- 0 2.0 1.0 46 144
- 5.8012 2 1 ack 40 ------- 0 2.0 1.0 46 144
r 5.8144 2 1 ack 40 ------- 0 2.0 1.0 46 144
- 5.8744 1 2 tcp 1040 ------- 0 1.0 2.0 57 135
r 5.8844 1 2 tcp 1040 ------- 0 1.0 2.0 56 133
+ 5.8844 2 1 ack 40 ------- 0 2.0 1.0 46 145
- 5.8844 2 1 ack 40 ------- 0 2.0 1.0 46 145
r 5.8976 2 1 ack 40 ------- 0 2.0 1.0 46 145
- 5.9576 1 2 tcp 1040 ------- 0 1.0 2.0 58 137
r 5.9676 1 2 tcp 1040 ------- 0 1.0 2.0 57 135
+ 5.9676 2 1 ack 40 ------- 0 2.0 1.0 46 146
- 5.9676 2 1 ack 40 ------- 0 2.0 1.0 46 146
r 5.9808 2 1 ack 40 ------- 0 2.0 1.0 46 146
- 6.0408 1 2 tcp 1040 ---A--- 0 1.0 2.0 47 139
r 6.0508 1 2 tcp 1040 ------- 0 1.0 2.0 58 137
+ 6.0508 2 1 ack 40 ------- 0 2.0 1.0 46 147
- 6.0508 2 1 ack 40 ------- 0 2.0 1.0 46 147
r 6.064 2 1 ack 40 ------- 0 2.0 1.0 46 147
r 6.134 1 2 tcp 1040 ---A--- 0 1.0 2.0 47 139
+ 6.134 2 1 ack 40 ------- 0 2.0 1.0 58 148
- 6.134 2 1 ack 40 ------- 0 2.0 1.0 58 148
r 6.1472 2 1 ack 40 ------- 0 2.0 1.0 58 148
+ 6.1472 1 2 tcp 1040 ------- 0 1.0 2.0 59 149
- 6.1472 1 2 tcp 1040 ------- 0 1.0 2.0 59 149
+ 6.1472 1 2 tcp 1040 ------- 0 1.0 2.0 60 150
- 6.2304 1 2 tcp 1040 ------- 0 1.0 2.0 60 150
r 6.2404 1 2 tcp 1040 ------- 0 1.0 2.0 59 149
+ 6.2404 2 1 ack 40 ------- 0 2.0 1.0 59 151
- 6.2404 2 1 ack 40 ------- 0 2.0 1.0 59 151
r 6.2536 2 1 ack 40 ------- 0 2.0 1.0 59 151
+ 6.2536 1 2 tcp 1040 ------- 0 1.0 2.0 61 152
+ 6.2536 1 2 tcp 1040 ------- 0 1.0 2.0 62 153
- 6.3136 1 2 tcp 1040 ------- 0 1.0 2.0 61 152
r 6.3236 1 2 tcp 1040 ------- 0 1.0 2.0 60 150
+ 6.3236 2 1 ack 40 ------- 0 2.0 1.0 60 154
- 6.3236 2 1 ack 40 ------- 0 2.0 1.0 60 154
r 6.3368 2 1 ack 40 ------- 0 2.0 1.0 60 154
+ 6.3368 1 2 tcp 1040 ------- 0 1.0 2.0 63 155
+ 6.3368 1 2 tcp 1040 ------- 0 1.0 2.0 64 156
- 6.3968 1 2 tcp 1040 ------- 0 1.0 2.0 62 153
r 6.4068 1 2 tcp 1040 ------- 0 1.0 2.0 61 152
+ 6.4068 2 1 ack 40 ------- 0 2.0 1.0 61 157
- 6.4068 2 1 ack 40 ------- 0 2.0 1.0 61 157
r 6.42 2 1 ack 40 ------- 0 2.0 1.0 61 157
+ 6.42 1 2 tcp 1040 ------- 0 1.0 2.0 65 158
+ 6.42 1 2 tcp 1040 ------- 0 1.0 2.0 66 159
- 6.48 1 2 tcp 1040 ------- 0 1.0 2.0 63 155
r 6.49 1 2 tcp 1040 ------- 0 1.0 2.0 62 153
+ 6.49 2 1 ack 40 ------- 0 2.0 1.0 62 160
- 6.49 2 1 ack 40 ------- 0 2.0 1.0 62 160
r 6.5032 2 1 ack 40 ------- 0 2.0 1.0 62 160
+ 6.5032 1 2 tcp 1040 ------- 0 1.0 2.0 67 161
- 6.5632 1 2 tcp 1040 ------- 0 1.0 2.0 64 156
r 6.5732 1 2 tcp 1040 ------- 0 1.0 2.0 63 155
+ 6.5732 2 1 ack 40 ------- 0 2.0 1.0 63 162
- 6.5732 2 1 ack 40 ------- 0 2.0 1.0 63 162
r 6.5864 2 1 ack 40 ------- 0 2.0 1.0 63 162
+ 6.5864 1 2 tcp 1040 ------- 0 1.0 2.0 68 163
- 6.6464 1 2 tcp 1040 ------- 0 1.0 2.0 65 158
r 6.6564 1 2 tcp 1040 ------- 0 1.0 2.0 64 156
+ 6.6564 2 1 ack 40 ------- 0 2.0 1.0 64 164
- 6.6564 2 1 ack 40 ------- 0 2.0 1.0 64 164
r 6.6696 2 1 ack 40 ------- 0 2.0 1.0 64 164
+ 6.6696 1 2 tcp 1040 ------- 0 1.0 2.0 69 165
- 6.7296 1 2 tcp 1040 ------- 0 1.0 2.0 66 159
r 6.7396 1 2 tcp 1040 ------- 0 1.0 2.0 65 158
+ 6.7396 2 1 ack 40 ------- 0 2.0 1.0 65 166
- 6.7396 2 1 ack 40 ------- 0 2.0 1.0 65 166
r 6.7528 2 1 ack 40 ------- 0 2.0 1.0 65 166
+ 6.7528 1 2 tcp 1040 ------- 0 1.0 2.0 70 167
- 6.8128 1 2 tcp 1040 ------- 0 1.0 2.0 67 161
r 6.8228 1 2 tcp 1040 ------- 0 1.0 2.0 66 159
+ 6.8228 2 1 ack 40 ------- 0 2.0 1.0 66 168
- 6.8228 2 1 ack 40 ------- 0 2.0 1.0 66 168
r 6.836 2 1 ack 40 ------- 0 2.0 1.0 66 168
+ 6.836 1 2 tcp 1040 ------- 0 1.0 2.0 71 169
- 6.896 1 2 tcp 1040 ------- 0 1.0 2.0 68 163
r 6.906 1 2 tcp 1040 ------- 0 1.0 2.0 67 161
+ 6.906 2 1 ack 40 ------- 0 2.0 1.0 67 170
- 6.906 2 1 ack 40 ------- 0 2.0 1.0 67 170
r 6.9192 2 1 ack 40 ------- 0 2.0 1.0 67 170
+ 6.9192 1 2 tcp 1040 ------- 0 1.0 2.0 72 171
+ 6.9192 1 2 tcp 1040 ------- 0 1.0 2.0 73 172
- 6.9792 1 2 tcp 1040 ------- 0 1.0 2.0 69 165
r 6.9892 1 2 tcp 1040 ------- 0 1.0 2.0 68 163
+ 6.9892 2 1 ack 40 ------- 0 2.0 1.0 68 173
- 6.9892 2 1 ack 40 ------- 0 2.0 1.0 68 173
r 7.0024 2 1 ack 40 ------- 0 2.0 1.0 68 173
+ 7.0024 1 2 tcp 1040 ------- 0 1.0 2.0 74 174
- 7.0624 1 2 tcp 1040 ------- 0 1.0 2.0 70 167
r 7.0724 1 2 tcp 1040 ------- 0 1.0 2.0 69 165
+ 7.0724 2 1 ack 40 ------- 0 2.0 1.0 69 175
- 7.0724 2 1 ack 40 ------- 0 2.0 1.0 69 175
r 7.0856 2 1 ack 40 ------- 0 2.0 1.0 69 175
+ 7.0856 1 2 tcp 1040 ------- 0 1.0 2.0 75 176
- 7.1456 1 2 tcp 1040 ------- 0 1.0 2.0 71 169
r 7.1556 1 2 tcp 1040 ------- 0 1.0 2.0 70 167
+ 7.1556 2 1 ack 40 ------- 0 2.0 1.0 70 177
- 7.1556 2 1 ack 40 ------- 0 2.0 1.0 70 177
r 7.1688 2 1 ack 40 ------- 0 2.0 1.0 70 177
+ 7.1688 1 2 tcp 1040 ------- 0 1.0 2.0 76 178
- 7.2288 1 2 tcp 1040 ------- 0 1.0 2.0 72 171
r 7.2388 1 2 tcp 1040 ------- 0 1.0 2.0 71 169
+ 7.2388 2 1 ack 40 ------- 0 2.0 1.0 71 179
- 7.2388 2 1 ack 40 ------- 0 2.0 1.0 71 179
r 7.252 2 1 ack 40 ------- 0 2.0 1.0 71 179
+ 7.252 1 2 tcp 1040 ------- 0 1.0 2.0 77 180
- 7.312 1 2 tcp 1040 ------- 0 1.0 2.0 73 172
r 7.322 1 2 tcp 1040 ------- 0 1.0 2.0 72 171
+ 7.322 2 1 ack 40 ------- 0 2.0 1.0 72 181
- 7.322 2 1 ack 40 ------- 0 2.0 1.0 72 181
r 7.3352 2 1 ack 40 ------- 0 2.0 1.0 72 181
+ 7.3352 1 2 tcp 1040 ------- 0 1.0 2.0 78 182
- 7.3952 1 2 tcp 1040 ------- 0 1.0 2.0 74 174
r 7.4052 1 2 tcp 1040 ------- 0 1.0 2.0 73 172
+ 7.4052 2 1 ack 40 ------- 0 2.0 1.0 73 183
- 7.4052 2 1 ack 40 ------- 0 2.0 1.0 73 183
r 7.4184 2 1 ack 40 ------- 0 2.0 1.0 73 183
+ 7.4184 1 2 tcp 1040 ------- 0 1.0 2.0 79 184
+ 7.4184 1 2 tcp 1040 ------- 0 1.0 2.0 80 185
- 7.4784 1 2 tcp 1040 ------- 0 1.0 2.0 75 176
r 7.4884 1 2 tcp 1040 ------- 0 1.0 2.0 74 174
+ 7.4884 2 1 ack 40 ------- 0 2.0 1.0 74 186
- 7.4884 2 1 ack 40 ------- 0 2.0 1.0 74 186
r 7.5016 2 1 ack 40 ------- 0 2.0 1.0 74 186
+ 7.5016 1 2 tcp 1040 ------- 0 1.0 2.0 81 187
- 7.5616 1 2 tcp 1040 ------- 0 1.0 2.0 76 178
r 7.5716 1 2 tcp 1040 ------- 0 1.0 2.0 75 176
+ 7.5716 2 1 ack 40 ------- 0 2.0 1.0 75 188
- 7.5716 2 1 ack 40 ------- 0 2.0 1.0 75 188
r 7.5848 2 1 ack 40 ------- 0 2.0 1.0 75 188
+ 7.5848 1 2 tcp 1040 ------- 0 1.0 2.0 82 189
- 7.6448 1 2 tcp 1040 ------- 0 1.0 2.0 77 180
r 7.6548 1 2 tcp 1040 ------- 0 1.0 2.0 76 178
+ 7.6548 2 1 ack 40 ------- 0 2.0 1.0 76 190
- 7.6548 2 1 ack 40 ------- 0 2.0 1.0 76 190
r 7.668 2 1 ack 40 ------- 0 2.0 1.0 76 190
+ 7.668 1 2 tcp 1040 ------- 0 1.0 2.0 83 191
- 7.728 1 2 tcp 1040 ------- 0 1.0 2.0 78 182
r 7.738 1 2 tcp 1040 ------- 0 1.0 2.0 77 180
+ 7.738 2 1 ack 40 ------- 0 2.0 1.0 77 192
- 7.738 2 1 ack 40 ------- 0 2.0 1.0 77 192
r 7.7512 2 1 ack 40 ------- 0 2.0 1.0 77 192
+ 7.7512 1 2 tcp 1040 ------- 0 1.0 2.0 84 193
- 7.8112 1 2 tcp 1040 ------- 0 1.0 2.0 79 184
r 7.8212 1 2 tcp 1040 ------- 0 1.0 2.0 78 182
+ 7.8212 2 1 ack 40 ------- 0 2.0 1.0 78 194
- 7.8212 2 1 ack 40 ------- 0 2.0 1.0 78 194
r 7.8344 2 1 ack 40 ------- 0 2.0 1.0 78 194
+ 7.8344 1 2 tcp 1040 ------- 0 1.0 2.0 85 195
- 7.8944 1 2 tcp 1040 ------- 0 1.0 2.0 80 185
r 7.9044 1 2 tcp 1040 ------- 0 1.0 2.0 79 184
+ 7.9044 2 1 ack 40 ------- 0 2.0 1.0 79 196
- 7.9044 2 1 ack 40 ------- 0 2.0 1.0 79 196
r 7.9176 2 1 ack 40 ------- 0 2.0 1.0 79 196
+ 7.9176 1 2 tcp 1040 ------- 0 1.0 2.0 86 197
- 7.9776 1 2 tcp 1040 ------- 0 1.0 2.0 81 187
r 7.9876 1 2 tcp 1040 ------- 0 1.0 2.0 80 185
+ 7.9876 2 1 ack 40 ------- 0 2.0 1.0 80 198
- 7.9876 2 1 ack 40 ------- 0 2.0 1.0 80 198
r 8.0008 2 1 ack 40 ------- 0 2.0 1.0 80 198
+ 8.0008 1 2 tcp 1040 ------- 0 1.0 2.0 87 199
- 8.0608 1 2 tcp 1040 ------- 0 1.0 2.0 82 189
r 8.0708 1 2 tcp 1040 ------- 0 1.0 2.0 81 187
+ 8.0708 2 1 ack 40 ------- 0 2.0 1.0 81 200
- 8.0708 2 1 ack 40 ------- 0 2.0 1.0 81 200
r 8.084 2 1 ack 40 ------- 0 2.0 1.0 81 200
+ 8.084 1 2 tcp 1040 ------- 0 1.0 2.0 88 201
+ 8.084 1 2 tcp 1040 ------- 0 1.0 2.0 89 202
- 8.144 1 2 tcp 1040 ------- 0 1.0 2.0 83 191
r 8.154 1 2 tcp 1040 ------- 0 1.0 2.0 82 189
+ 8.154 2 1 ack 40 ------- 0 2.0 1.0 82 203
- 8.154 2 1 ack 40 ------- 0 2.0 1.0 82 203
r 8.1672 2 1 ack 40 ------- 0 2.0 1.0 82 203
+ 8.1672 1 2 tcp 1040 ------- 0 1.0 2.0 90 204
- 8.2272 1 2 tcp 1040 ------- 0 1.0 2.0 84 193
r 8.2372 1 2 tcp 1040 ------- 0 1.0 2.0 83 191
+ 8.2372 2 1 ack 40 ------- 0 2.0 1.0 83 205
- 8.2372 2 1 ack 40 ------- 0 2.0 1.0 83 205
r 8.2504 2 1 ack 40 ------- 0 2.0 1.0 83 205
+ 8.2504 1 2 tcp 1040 ------- 0 1.0 2.0 91 206
- 8.3104 1 2 tcp 1040 ------- 0 1.0 2.0 85 195
r 8.3204 1 2 tcp 1040 ------- 0 1.0 2.0 84 193
+ 8.3204 2 1 ack 40 ------- 0 2.0 1.0 84 207
- 8.3204 2 1 ack 40 ------- 0 2.0 1.0 84 207
r 8.3336 2 1 ack 40 ------- 0 2.0 1.0 84 207
+ 8.3336 1 2 tcp 1040 ------- 0 1.0 2.0 92 208
- 8.3936 1 2 tcp 1040 ------- 0 1.0 2.0 86 197
r 8.4036 1 2 tcp 1040 ------- 0 1.0 2.0 85 195
+ 8.4036 2 1 ack 40 ------- 0 2.0 1.0 85 209
- 8.4036 2 1 ack 40 ------- 0 2.0 1.0 85 209
r 8.4168 2 1 ack 40 ------- 0 2.0 1.0 85 209
+ 8.4168 1 2 tcp 1040 ------- 0 1.0 2.0 93 210
- 8.4768 1 2 tcp 1040 ------- 0 1.0 2.0 87 199
r 8.4868 1 2 tcp 1040 ------- 0 1.0 2.0 86 197
+ 8.4868 2 1 ack 40 ------- 0 2.0 1.0 86 211
- 8.4868 2 1 ack 40 ------- 0 2.0 1.0 86 211
r 8.5 2 1 ack 40 ------- 0 2.0 1.0 86 211
+ 8.5 1 2 tcp 1040 ------- 0 1.0 2.0 94 212
- 8.56 1 2 tcp 1040 ------- 0 1.0 2.0 88 201
r 8.57 1 2 tcp 1040 ------- 0 1.0 2.0 87 199
+ 8.57 2 1 ack 40 ------- 0 2.0 1.0 87 213
- 8.57 2 1 ack 40 ------- 0 2.0 1.0 87 213
r 8.5832 2 1 ack 40 ------- 0 2.0 1.0 87 213
+ 8.5832 1 2 tcp 1040 ------- 0 1.0 2.0 95 214
- 8.6432 1 2 tcp 1040 ------- 0 1.0 2.0 89 202
r 8.6532 1 2 tcp 1040 ------- 0 1.0 2.0 88 201
+ 8.6532 2 1 ack 40 ------- 0 2.0 1.0 88 215
- 8.6532 2 1 ack 40 ------- 0 2.0 1.0 88 215
r 8.6664 2 1 ack 40 ------- 0 2.0 1.0 88 215
+ 8.6664 1 2 tcp 1040 ------- 0 1.0 2.0 96 216
- 8.7264 1 2 tcp 1040 ------- 0 1.0 2.0 90 204
r 8.7364 1 2 tcp 1040 ------- 0 1.0 2.0 89 202
+ 8.7364 2 1 ack 40 ------- 0 2.0 1.0 89 217
- 8.7364 2 1 ack 40 ------- 0 2.0 1.0 89 217
r 8.7496 2 1 ack 40 ------- 0 2.0 1.0 89 217
+ 8.7496 1 2 tcp 1040 ------- 0 1.0 2.0 97 218
+ 8.7496 1 2 tcp 1040 ------- 0 1.0 2.0 98 219
- 8.8096 1 2 tcp 1040 ------- 0 1.0 2.0 91 206
r 8.8196 1 2 tcp 1040 ------- 0 1.0 2.0 90 204
+ 8.8196 2 1 ack 40 ------- 0 2.0 1.0 90 220
- 8.8196 2 1 ack 40 ------- 0 2.0 1.0 90 220
r 8.8328 2 1 ack 40 ------- 0 2.0 1.0 90 220
+ 8.8328 1 2 tcp 1040 ------- 0 1.0 2.0 99 221
- 8.8928 1 2 tcp 1040 ------- 0 1.0 2.0 92 208
r 8.9028 1 2 tcp 1040 ------- 0 1.0 2.0 91 206
+ 8.9028 2 1 ack 40 ------- 0 2.0 1.0 91 222
- 8.9028 2 1 ack 40 ------- 0 2.0 1.0 91 222
r 8.916 2 1 ack 40 ------- 0 2.0 1.0 91 222
+ 8.916 1 2 tcp 1040 ------- 0 1.0 2.0 100 223
- 8.976 1 2 tcp 1040 ------- 0 1.0 2.0 93 210
r 8.986 1 2 tcp 1040 ------- 0 1.0 2.0 92 208
+ 8.986 2 1 ack 40 ------- 0 2.0 1.0 92 224
- 8.986 2 1 ack 40 ------- 0 2.0 1.0 92 224
r 8.9992 2 1 ack 40 ------- 0 2.0 1.0 92 224
+ 8.9992 1 2 tcp 1040 ------- 0 1.0 2.0 101 225
- 9.0592 1 2 tcp 1040 ------- 0 1.0 2.0 94 212
r 9.0692 1 2 tcp 1040 ------- 0 1.0 2.0 93 210
+ 9.0692 2 1 ack 40 ------- 0 2.0 1.0 93 226
- 9.0692 2 1 ack 40 ------- 0 2.0 1.0 93 226
r 9.0824 2 1 ack 40 ------- 0 2.0 1.0 93 226
+ 9.0824 1 2 tcp 1040 ------- 0 1.0 2.0 102 227
- 9.1424 1 2 tcp 1040 ------- 0 1.0 2.0 95 214
r 9.1524 1 2 tcp 1040 ------- 0 1.0 2.0 94 212
+ 9.1524 2 1 ack 40 ------- 0 2.0 1.0 94 228
- 9.1524 2 1 ack 40 ------- 0 2.0 1.0 94 228
r 9.1656 2 1 ack 40 ------- 0 2.0 1.0 94 228
+ 9.1656 1 2 tcp 1040 ------- 0 1.0 2.0 103 229
- 9.2256 1 2 tcp 1040 ------- 0 1.0 2.0 96 216